11968014
  -OEChem-09072005222D

 43 46  0     1  0  0  0  0  0999 V2000
   12.2367   -0.9261    0.0000 O   0  0  0  0  0  0  0  0  0  0  0  0
    6.8639   -0.9317    0.0000 O   0  0  0  0  0  0  0  0  0  0  0  0
    6.4156    0.7413    0.0000 O   0  0  0  0  0  0  0  0  0  0  0  0
    3.9661   -1.7081    0.0000 O   0  0  0  0  0  0  0  0  0  0  0  0
   10.3565    1.4410    0.0000 N   0  0  0  0  0  0  0  0  0  0  0  0
   11.2514   -1.0996    0.0000 C   0  0  2  0  0  0  0  0  0  0  0  0
   11.5934   -0.1599    0.0000 C   0  0  2  0  0  0  0  0  0  0  0  0
    9.8787   -0.5075    0.0000 C   0  0  2  0  0  0  0  0  0  0  0  0
    9.6198    0.4584    0.0000 C   0  0  1  0  0  0  0  0  0  0  0  0
    8.6070   -1.3022    0.0000 C   0  0  0  0  0  0  0  0  0  0  0  0
    8.1882    0.2607    0.0000 C   0  0  0  0  0  0  0  0  0  0  0  0
    7.8298   -0.6729    0.0000 C   0  0  0  0  0  0  0  0  0  0  0  0
   10.8565    2.3070    0.0000 C   0  0  0  0  0  0  0  0  0  0  0  0
    6.1568   -0.2246    0.0000 C   0  0  0  0  0  0  0  0  0  0  0  0
    5.1909   -0.4834    0.0000 C   0  0  2  0  0  0  0  0  0  0  0  0
    4.9321   -1.4493    0.0000 C   0  0  0  0  0  0  0  0  0  0  0  0
    4.4838    0.2237    0.0000 C   0  0  0  0  0  0  0  0  0  0  0  0
    3.5178   -0.0351    0.0000 C   0  0  0  0  0  0  0  0  0  0  0  0
    4.7426    1.1896    0.0000 C   0  0  0  0  0  0  0  0  0  0  0  0
    2.8107    0.6720    0.0000 C   0  0  0  0  0  0  0  0  0  0  0  0
    4.0355    1.8967    0.0000 C   0  0  0  0  0  0  0  0  0  0  0  0
    3.0696    1.6379    0.0000 C   0  0  0  0  0  0  0  0  0  0  0  0
   11.0393   -1.6822    0.0000 H   0  0  0  0  0  0  0  0  0  0  0  0
   11.8054    0.4227    0.0000 H   0  0  0  0  0  0  0  0  0  0  0  0
   10.0987   -1.3286    0.0000 H   0  0  0  0  0  0  0  0  0  0  0  0
    9.3998    1.2794    0.0000 H   0  0  0  0  0  0  0  0  0  0  0  0
    8.9915   -1.7885    0.0000 H   0  0  0  0  0  0  0  0  0  0  0  0
    8.1660   -1.7380    0.0000 H   0  0  0  0  0  0  0  0  0  0  0  0
    7.5804    0.3830    0.0000 H   0  0  0  0  0  0  0  0  0  0  0  0
    8.2072    0.8804    0.0000 H   0  0  0  0  0  0  0  0  0  0  0  0
    7.4150   -0.2121    0.0000 H   0  0  0  0  0  0  0  0  0  0  0  0
   10.3195    2.6170    0.0000 H   0  0  0  0  0  0  0  0  0  0  0  0
   11.1665    2.8440    0.0000 H   0  0  0  0  0  0  0  0  0  0  0  0
   11.3934    1.9970    0.0000 H   0  0  0  0  0  0  0  0  0  0  0  0
    5.6293   -0.9218    0.0000 H   0  0  0  0  0  0  0  0  0  0  0  0
    5.5497   -1.5034    0.0000 H   0  0  0  0  0  0  0  0  0  0  0  0
    4.9861   -2.0670    0.0000 H   0  0  0  0  0  0  0  0  0  0  0  0
    3.3574   -0.6340    0.0000 H   0  0  0  0  0  0  0  0  0  0  0  0
    5.3415    1.3501    0.0000 H   0  0  0  0  0  0  0  0  0  0  0  0
    3.8057   -2.3070    0.0000 H   0  0  0  0  0  0  0  0  0  0  0  0
    2.2119    0.5115    0.0000 H   0  0  0  0  0  0  0  0  0  0  0  0
    4.1960    2.4956    0.0000 H   0  0  0  0  0  0  0  0  0  0  0  0
    2.6312    2.0763    0.0000 H   0  0  0  0  0  0  0  0  0  0  0  0
  6  1  1  1  0  0  0
  7  1  1  6  0  0  0
  2 12  1  0  0  0  0
  2 14  1  0  0  0  0
  3 14  2  0  0  0  0
  4 16  1  0  0  0  0
  4 40  1  0  0  0  0
  5  8  1  0  0  0  0
  5  9  1  0  0  0  0
  5 13  1  0  0  0  0
  6  7  1  0  0  0  0
  6  8  1  0  0  0  0
  6 23  1  0  0  0  0
  7  9  1  0  0  0  0
  7 24  1  0  0  0  0
  8 10  1  0  0  0  0
  8 25  1  1  0  0  0
  9 11  1  0  0  0  0
  9 26  1  6  0  0  0
 10 12  1  0  0  0  0
 10 27  1  0  0  0  0
 10 28  1  0  0  0  0
 11 12  1  0  0  0  0
 11 29  1  0  0  0  0
 11 30  1  0  0  0  0
 12 31  1  0  0  0  0
 13 32  1  0  0  0  0
 13 33  1  0  0  0  0
 13 34  1  0  0  0  0
 14 15  1  0  0  0  0
 15 16  1  6  0  0  0
 15 17  1  0  0  0  0
 15 35  1  0  0  0  0
 16 36  1  0  0  0  0
 16 37  1  0  0  0  0
 17 18  2  0  0  0  0
 17 19  1  0  0  0  0
 18 20  1  0  0  0  0
 18 38  1  0  0  0  0
 19 21  2  0  0  0  0
 19 39  1  0  0  0  0
 20 22  2  0  0  0  0
 20 41  1  0  0  0  0
 21 22  1  0  0  0  0
 21 42  1  0  0  0  0
 22 43  1  0  0  0  0
M  END
> <PUBCHEM_COMPOUND_CID>
11968014

> <PUBCHEM_COMPOUND_CANONICALIZED>
1

> <PUBCHEM_CACTVS_COMPLEXITY>
418

> <PUBCHEM_CACTVS_HBOND_ACCEPTOR>
5

> <PUBCHEM_CACTVS_HBOND_DONOR>
1

> <PUBCHEM_CACTVS_ROTATABLE_BOND>
5

> <PUBCHEM_CACTVS_SUBSKEYS>
AAADceB6OAAAAAAAAAAAAAAAEgAAAWAAAAA8WIAABgAAAAABAAAAHgAACAAADTzhmAYyCIMABgCIAiDSCAACAAAgAAAIiAEIAIgKMDaAlRCHYAAn4AGYiAfY6OyOgAAAAAAAAAAAAAAAAAAAAAAAAAAAAA==

> <PUBCHEM_IUPAC_OPENEYE_NAME>
[(1R,2S,4S,5S)-9-methyl-3-oxa-9-azatricyclo[3.3.1.02,4]nonan-7-yl] (2S)-3-hydroxy-2-phenyl-propanoate

> <PUBCHEM_IUPAC_CAS_NAME>
(2S)-3-hydroxy-2-phenylpropanoic acid [(1R,2S,4S,5S)-9-methyl-3-oxa-9-azatricyclo[3.3.1.02,4]nonan-7-yl] ester

> <PUBCHEM_IUPAC_NAME_MARKUP>
[(1<I>R</I>,2<I>S</I>,4<I>S</I>,5<I>S</I>)-9-methyl-3-oxa-9-azatricyclo[3.3.1.0<SUP>2,4</SUP>]nonan-7-yl] (2<I>S</I>)-3-hydroxy-2-phenylpropanoate

> <PUBCHEM_IUPAC_NAME>
[(1R,2S,4S,5S)-9-methyl-3-oxa-9-azatricyclo[3.3.1.02,4]nonan-7-yl] (2S)-3-hydroxy-2-phenylpropanoate

> <PUBCHEM_IUPAC_SYSTEMATIC_NAME>
[(1R,2S,4S,5S)-9-methyl-3-oxa-9-azatricyclo[3.3.1.02,4]nonan-7-yl] (2S)-3-oxidanyl-2-phenyl-propanoate

> <PUBCHEM_IUPAC_TRADITIONAL_NAME>
(2S)-3-hydroxy-2-phenyl-propionic acid [(1R,2S,4S,5S)-9-methyl-3-oxa-9-azatricyclo[3.3.1.02,4]nonan-7-yl] ester

> <PUBCHEM_IUPAC_INCHI>
InChI=1S/C17H21NO4/c1-18-13-7-11(8-14(18)16-15(13)22-16)21-17(20)12(9-19)10-5-3-2-4-6-10/h2-6,11-16,19H,7-9H2,1H3/t11?,12-,13-,14+,15+,16+/m1/s1

> <PUBCHEM_IUPAC_INCHIKEY>
STECJAGHUSJQJN-SFSMXDMGSA-N

> <PUBCHEM_XLOGP3>
0.9

> <PUBCHEM_EXACT_MASS>
303.147058

> <PUBCHEM_MOLECULAR_FORMULA>
C17H21NO4

> <PUBCHEM_MOLECULAR_WEIGHT>
303.35

> <PUBCHEM_OPENEYE_CAN_SMILES>
CN1C2CC(CC1C3C2O3)OC(=O)C(CO)C4=CC=CC=C4

> <PUBCHEM_OPENEYE_ISO_SMILES>
CN1[C@@H]2CC(C[C@H]1[C@H]3[C@H]2O3)OC(=O)[C@H](CO)C4=CC=CC=C4

> <PUBCHEM_CACTVS_TPSA>
62.3

> <PUBCHEM_MONOISOTOPIC_WEIGHT>
303.147058

> <PUBCHEM_TOTAL_CHARGE>
0

> <PUBCHEM_HEAVY_ATOM_COUNT>
22

> <PUBCHEM_ATOM_DEF_STEREO_COUNT>
5

> <PUBCHEM_ATOM_UDEF_STEREO_COUNT>
0

> <PUBCHEM_BOND_DEF_STEREO_COUNT>
0

> <PUBCHEM_BOND_UDEF_STEREO_COUNT>
0

> <PUBCHEM_ISOTOPIC_ATOM_COUNT>
0

> <PUBCHEM_COMPONENT_COUNT>
1

> <PUBCHEM_CACTVS_TAUTO_COUNT>
-1

> <PUBCHEM_COORDINATE_TYPE>
1
5
255

> <PUBCHEM_BONDANNOTATIONS>
6  1  5
7  1  6
15  16  6
17  18  8
17  19  8
18  20  8
19  21  8
20  22  8
21  22  8
8  25  5
9  26  6

$$$$
