10350652
  -OEChem-11212000152D

 99108  0     1  0  0  0  0  0999 V2000
    8.1775    1.7789    0.0000 O   0  0  0  0  0  0  0  0  0  0  0  0
    4.7126    1.6654    0.0000 O   0  0  0  0  0  0  0  0  0  0  0  0
    5.5092    3.8252    0.0000 O   0  0  0  0  0  0  0  0  0  0  0  0
    6.1226   -1.4809    0.0000 O   0  0  0  0  0  0  0  0  0  0  0  0
   12.3390    1.4965    0.0000 O   0  0  0  0  0  0  0  0  0  0  0  0
   11.0384   -0.8075    0.0000 O   0  0  0  0  0  0  0  0  0  0  0  0
    7.1214   -1.4355    0.0000 O   0  0  0  0  0  0  0  0  0  0  0  0
   10.3171   -1.3152    0.0000 O   0  0  0  0  0  0  0  0  0  0  0  0
    5.0263   -4.0452    0.0000 O   0  0  0  0  0  0  0  0  0  0  0  0
    2.5127   -1.2114    0.0000 O   0  0  0  0  0  0  0  0  0  0  0  0
    8.8930    2.1219    0.0000 O   0  0  0  0  0  0  0  0  0  0  0  0
    5.8492    5.3226    0.0000 O   0  0  0  0  0  0  0  0  0  0  0  0
    7.7811    5.8403    0.0000 O   0  0  0  0  0  0  0  0  0  0  0  0
   11.1739    4.8289    0.0000 O   0  0  0  0  0  0  0  0  0  0  0  0
   15.5674   -0.1089    0.0000 O   0  0  0  0  0  0  0  0  0  0  0  0
    7.6181   -5.6600    0.0000 O   0  0  0  0  0  0  0  0  0  0  0  0
   15.2085   -2.0764    0.0000 O   0  0  0  0  0  0  0  0  0  0  0  0
    9.4054   -4.7625    0.0000 O   0  0  0  0  0  0  0  0  0  0  0  0
    6.4870    1.0106    0.0000 C   0  0  1  0  0  0  0  0  0  0  0  0
    6.0092    2.9592    0.0000 C   0  0  2  0  0  0  0  0  0  0  0  0
    6.7458    1.9766    0.0000 C   0  0  1  0  0  0  0  0  0  0  0  0
    5.2660    0.1450    0.0000 C   0  0  0  0  0  0  0  0  0  0  0  0
    7.7587    0.2160    0.0000 C   0  0  0  0  0  0  0  0  0  0  0  0
    8.5358    0.8453    0.0000 C   0  0  0  0  0  0  0  0  0  0  0  0
    4.4370    0.7042    0.0000 C   0  0  0  0  0  0  0  0  0  0  0  0
   10.4556    0.8236    0.0000 C   0  0  2  0  0  0  0  0  0  0  0  0
    9.5139    0.4871    0.0000 C   0  0  0  0  0  0  0  0  0  0  0  0
    5.2094   -0.8951    0.0000 C   0  0  0  0  0  0  0  0  0  0  0  0
    7.0046    2.9425    0.0000 C   0  0  0  0  0  0  0  0  0  0  0  0
   11.2179    0.1763    0.0000 C   0  0  2  0  0  0  0  0  0  0  0  0
    4.2767   -1.3589    0.0000 C   0  0  0  0  0  0  0  0  0  0  0  0
    7.9058   -0.8152    0.0000 C   0  0  0  0  0  0  0  0  0  0  0  0
    4.1927   -2.4407    0.0000 C   0  0  0  0  0  0  0  0  0  0  0  0
   10.6351    1.8073    0.0000 C   0  0  0  0  0  0  0  0  0  0  0  0
    9.6848   -0.5404    0.0000 C   0  0  0  0  0  0  0  0  0  0  0  0
    3.4938    0.2620    0.0000 C   0  0  0  0  0  0  0  0  0  0  0  0
   12.1596    0.5127    0.0000 C   0  0  1  0  0  0  0  0  0  0  0  0
    5.0922   -3.0474    0.0000 C   0  0  1  0  0  0  0  0  0  0  0  0
    6.0637   -2.5643    0.0000 C   0  0  1  0  0  0  0  0  0  0  0  0
    3.4131   -0.7765    0.0000 C   0  0  0  0  0  0  0  0  0  0  0  0
    8.8753   -1.1960    0.0000 C   0  0  0  0  0  0  0  0  0  0  0  0
    6.2975    3.6496    0.0000 C   0  0  0  0  0  0  0  0  0  0  0  0
   11.5768    2.1438    0.0000 C   0  0  0  0  0  0  0  0  0  0  0  0
    7.9706    3.2013    0.0000 C   0  0  0  0  0  0  0  0  0  0  0  0
   12.9218   -0.1345    0.0000 C   0  0  0  0  0  0  0  0  0  0  0  0
    9.8308    2.4692    0.0000 C   0  0  0  0  0  0  0  0  0  0  0  0
    6.8991   -3.1138    0.0000 C   0  0  0  0  0  0  0  0  0  0  0  0
    6.5564    4.6155    0.0000 C   0  0  0  0  0  0  0  0  0  0  0  0
    8.2294    4.1672    0.0000 C   0  0  0  0  0  0  0  0  0  0  0  0
   11.7794    3.1655    0.0000 C   0  0  0  0  0  0  0  0  0  0  0  0
    7.5223    4.8743    0.0000 C   0  0  0  0  0  0  0  0  0  0  0  0
   10.0098    3.4954    0.0000 C   0  0  0  0  0  0  0  0  0  0  0  0
   10.9907    3.8459    0.0000 C   0  0  0  0  0  0  0  0  0  0  0  0
   13.8635    0.2019    0.0000 C   0  0  0  0  0  0  0  0  0  0  0  0
   12.7424   -1.1183    0.0000 C   0  0  0  0  0  0  0  0  0  0  0  0
    6.8409   -4.1121    0.0000 C   0  0  0  0  0  0  0  0  0  0  0  0
    7.7928   -2.6651    0.0000 C   0  0  0  0  0  0  0  0  0  0  0  0
   14.6257   -0.4454    0.0000 C   0  0  0  0  0  0  0  0  0  0  0  0
    7.6763   -4.6617    0.0000 C   0  0  0  0  0  0  0  0  0  0  0  0
   13.5046   -1.7656    0.0000 C   0  0  0  0  0  0  0  0  0  0  0  0
    8.6282   -3.2147    0.0000 C   0  0  0  0  0  0  0  0  0  0  0  0
   14.4463   -1.4291    0.0000 C   0  0  0  0  0  0  0  0  0  0  0  0
    8.5700   -4.2130    0.0000 C   0  0  0  0  0  0  0  0  0  0  0  0
    6.2670    0.1896    0.0000 H   0  0  0  0  0  0  0  0  0  0  0  0
    6.5266    3.3007    0.0000 H   0  0  0  0  0  0  0  0  0  0  0  0
   11.2561    1.1096    0.0000 H   0  0  0  0  0  0  0  0  0  0  0  0
   10.6340   -0.0324    0.0000 H   0  0  0  0  0  0  0  0  0  0  0  0
    3.5919   -2.2876    0.0000 H   0  0  0  0  0  0  0  0  0  0  0  0
    3.9390   -3.0064    0.0000 H   0  0  0  0  0  0  0  0  0  0  0  0
    2.9838    0.6147    0.0000 H   0  0  0  0  0  0  0  0  0  0  0  0
   12.7434    0.7214    0.0000 H   0  0  0  0  0  0  0  0  0  0  0  0
    5.6082   -3.3911    0.0000 H   0  0  0  0  0  0  0  0  0  0  0  0
    6.6172   -2.2850    0.0000 H   0  0  0  0  0  0  0  0  0  0  0  0
    4.8892    3.8252    0.0000 H   0  0  0  0  0  0  0  0  0  0  0  0
    8.9699   -1.8087    0.0000 H   0  0  0  0  0  0  0  0  0  0  0  0
    5.6987    3.4891    0.0000 H   0  0  0  0  0  0  0  0  0  0  0  0
    8.4090    2.7629    0.0000 H   0  0  0  0  0  0  0  0  0  0  0  0
   11.5110   -1.2088    0.0000 H   0  0  0  0  0  0  0  0  0  0  0  0
    7.2113   -2.0489    0.0000 H   0  0  0  0  0  0  0  0  0  0  0  0
    8.8283    4.3277    0.0000 H   0  0  0  0  0  0  0  0  0  0  0  0
   12.3657    3.3674    0.0000 H   0  0  0  0  0  0  0  0  0  0  0  0
   10.0972   -1.8948    0.0000 H   0  0  0  0  0  0  0  0  0  0  0  0
    4.4700   -4.3191    0.0000 H   0  0  0  0  0  0  0  0  0  0  0  0
    9.5357    3.8949    0.0000 H   0  0  0  0  0  0  0  0  0  0  0  0
    2.0000   -0.8627    0.0000 H   0  0  0  0  0  0  0  0  0  0  0  0
   13.9747    0.8119    0.0000 H   0  0  0  0  0  0  0  0  0  0  0  0
   12.1585   -1.3269    0.0000 H   0  0  0  0  0  0  0  0  0  0  0  0
    6.2868   -4.3904    0.0000 H   0  0  0  0  0  0  0  0  0  0  0  0
    7.8289   -2.0461    0.0000 H   0  0  0  0  0  0  0  0  0  0  0  0
    8.4158    2.5177    0.0000 H   0  0  0  0  0  0  0  0  0  0  0  0
   13.3933   -2.3755    0.0000 H   0  0  0  0  0  0  0  0  0  0  0  0
    9.1823   -2.9364    0.0000 H   0  0  0  0  0  0  0  0  0  0  0  0
    6.0097    5.9215    0.0000 H   0  0  0  0  0  0  0  0  0  0  0  0
    8.3800    6.0007    0.0000 H   0  0  0  0  0  0  0  0  0  0  0  0
   11.7586    5.0353    0.0000 H   0  0  0  0  0  0  0  0  0  0  0  0
   15.6787    0.5011    0.0000 H   0  0  0  0  0  0  0  0  0  0  0  0
    8.1361   -6.0007    0.0000 H   0  0  0  0  0  0  0  0  0  0  0  0
   15.7924   -1.8678    0.0000 H   0  0  0  0  0  0  0  0  0  0  0  0
    9.9595   -4.4843    0.0000 H   0  0  0  0  0  0  0  0  0  0  0  0
  1 21  1  0  0  0  0
  1 24  1  0  0  0  0
  2 21  1  0  0  0  0
  2 25  1  0  0  0  0
 20  3  1  1  0  0  0
  3 74  1  0  0  0  0
  4 28  1  0  0  0  0
  4 39  1  0  0  0  0
  5 37  1  0  0  0  0
  5 43  1  0  0  0  0
 30  6  1  6  0  0  0
  6 78  1  0  0  0  0
  7 32  1  0  0  0  0
  7 79  1  0  0  0  0
  8 35  1  0  0  0  0
  8 82  1  0  0  0  0
 38  9  1  1  0  0  0
  9 83  1  0  0  0  0
 10 40  1  0  0  0  0
 10 85  1  0  0  0  0
 11 46  1  0  0  0  0
 11 90  1  0  0  0  0
 12 48  1  0  0  0  0
 12 93  1  0  0  0  0
 13 51  1  0  0  0  0
 13 94  1  0  0  0  0
 14 53  1  0  0  0  0
 14 95  1  0  0  0  0
 15 58  1  0  0  0  0
 15 96  1  0  0  0  0
 16 59  1  0  0  0  0
 16 97  1  0  0  0  0
 17 62  1  0  0  0  0
 17 98  1  0  0  0  0
 18 63  1  0  0  0  0
 18 99  1  0  0  0  0
 19 20  1  0  0  0  0
 19 22  1  0  0  0  0
 19 23  1  0  0  0  0
 19 64  1  1  0  0  0
 20 21  1  0  0  0  0
 20 65  1  0  0  0  0
 21 29  1  6  0  0  0
 22 25  2  0  0  0  0
 22 28  1  0  0  0  0
 23 24  1  0  0  0  0
 23 32  2  0  0  0  0
 24 27  2  0  0  0  0
 25 36  1  0  0  0  0
 26 27  1  0  0  0  0
 26 30  1  0  0  0  0
 26 34  1  0  0  0  0
 26 66  1  6  0  0  0
 27 35  1  0  0  0  0
 28 31  2  0  0  0  0
 29 42  2  0  0  0  0
 29 44  1  0  0  0  0
 30 37  1  0  0  0  0
 30 67  1  0  0  0  0
 31 33  1  0  0  0  0
 31 40  1  0  0  0  0
 32 41  1  0  0  0  0
 33 38  1  0  0  0  0
 33 68  1  0  0  0  0
 33 69  1  0  0  0  0
 34 43  1  0  0  0  0
 34 46  2  0  0  0  0
 35 41  2  0  0  0  0
 36 40  2  0  0  0  0
 36 70  1  0  0  0  0
 37 45  1  6  0  0  0
 37 71  1  0  0  0  0
 38 39  1  0  0  0  0
 38 72  1  0  0  0  0
 39 47  1  6  0  0  0
 39 73  1  0  0  0  0
 41 75  1  0  0  0  0
 42 48  1  0  0  0  0
 42 76  1  0  0  0  0
 43 50  2  0  0  0  0
 44 49  2  0  0  0  0
 44 77  1  0  0  0  0
 45 54  2  0  0  0  0
 45 55  1  0  0  0  0
 46 52  1  0  0  0  0
 47 56  2  0  0  0  0
 47 57  1  0  0  0  0
 48 51  2  0  0  0  0
 49 51  1  0  0  0  0
 49 80  1  0  0  0  0
 50 53  1  0  0  0  0
 50 81  1  0  0  0  0
 52 53  2  0  0  0  0
 52 84  1  0  0  0  0
 54 58  1  0  0  0  0
 54 86  1  0  0  0  0
 55 60  2  0  0  0  0
 55 87  1  0  0  0  0
 56 59  1  0  0  0  0
 56 88  1  0  0  0  0
 57 61  2  0  0  0  0
 57 89  1  0  0  0  0
 58 62  2  0  0  0  0
 59 63  2  0  0  0  0
 60 62  1  0  0  0  0
 60 91  1  0  0  0  0
 61 63  1  0  0  0  0
 61 92  1  0  0  0  0
M  END
> <PUBCHEM_COMPOUND_CID>
10350652

> <PUBCHEM_COMPOUND_CANONICALIZED>
1

> <PUBCHEM_CACTVS_COMPLEXITY>
1610

> <PUBCHEM_CACTVS_HBOND_ACCEPTOR>
18

> <PUBCHEM_CACTVS_HBOND_DONOR>
14

> <PUBCHEM_CACTVS_ROTATABLE_BOND>
4

> <PUBCHEM_CACTVS_SUBSKEYS>
AAADcfB8PgAAAAAAAAAAAAAAAAAAAAAAAAA0aNGjAAASAACRVAAAGgAACAAADRSgmAIwDoAABgCAAiBCAAACCAAgIAAIiAAGiIgdNyKGMRqieCGlwBUPuAfA4PwOoAADCAAIQABAAAYQABCAAAAAAAAAAA==

> <PUBCHEM_IUPAC_OPENEYE_NAME>
(1R,5R,6S,13R,21R)-5,13-bis(3,4-dihydroxyphenyl)-16-[(2R,3R,4R)-2-(3,4-dihydroxyphenyl)-3,5,7-trihydroxy-chroman-4-yl]-4,12,14-trioxapentacyclo[11.7.1.02,11.03,8.015,20]henicosa-2(11),3(8),9,15,17,19-hexaene-6,9,17,19,21-pentol

> <PUBCHEM_IUPAC_CAS_NAME>
(1R,5R,6S,13R,21R)-5,13-bis(3,4-dihydroxyphenyl)-16-[(2R,3R,4R)-2-(3,4-dihydroxyphenyl)-3,5,7-trihydroxy-3,4-dihydro-2H-1-benzopyran-4-yl]-4,12,14-trioxapentacyclo[11.7.1.02,11.03,8.015,20]heneicosa-2(11),3(8),9,15,17,19-hexaene-6,9,17,19,21-pentol

> <PUBCHEM_IUPAC_NAME_MARKUP>
(1<I>R</I>,5<I>R</I>,6<I>S</I>,13<I>R</I>,21<I>R</I>)-5,13-bis(3,4-dihydroxyphenyl)-16-[(2<I>R</I>,3<I>R</I>,4<I>R</I>)-2-(3,4-dihydroxyphenyl)-3,5,7-trihydroxy-3,4-dihydro-2<I>H</I>-chromen-4-yl]-4,12,14-trioxapentacyclo[11.7.1.0<SUP>2,11</SUP>.0<SUP>3,8</SUP>.0<SUP>15,20</SUP>]henicosa-2(11),3(8),9,15,17,19-hexaene-6,9,17,19,21-pentol

> <PUBCHEM_IUPAC_NAME>
(1R,5R,6S,13R,21R)-5,13-bis(3,4-dihydroxyphenyl)-16-[(2R,3R,4R)-2-(3,4-dihydroxyphenyl)-3,5,7-trihydroxy-3,4-dihydro-2H-chromen-4-yl]-4,12,14-trioxapentacyclo[11.7.1.02,11.03,8.015,20]henicosa-2(11),3(8),9,15,17,19-hexaene-6,9,17,19,21-pentol

> <PUBCHEM_IUPAC_SYSTEMATIC_NAME>
(1R,5R,6S,13R,21R)-5,13-bis[3,4-bis(oxidanyl)phenyl]-16-[(2R,3R,4R)-2-[3,4-bis(oxidanyl)phenyl]-3,5,7-tris(oxidanyl)-3,4-dihydro-2H-chromen-4-yl]-4,12,14-trioxapentacyclo[11.7.1.02,11.03,8.015,20]henicosa-2(11),3(8),9,15,17,19-hexaene-6,9,17,19,21-pentol

> <PUBCHEM_IUPAC_TRADITIONAL_NAME>
(1R,5R,6S,13R,21R)-5,13-bis(3,4-dihydroxyphenyl)-16-[(2R,3R,4R)-2-(3,4-dihydroxyphenyl)-3,5,7-trihydroxy-chroman-4-yl]-4,12,14-trioxapentacyclo[11.7.1.02,11.03,8.015,20]heneicosa-2(11),3(8),9,15,17,19-hexaene-6,9,17,19,21-pentol

> <PUBCHEM_IUPAC_INCHI>
InChI=1S/C45H36O18/c46-18-10-27(54)33-31(11-18)60-41(16-2-5-21(48)25(52)8-16)39(58)37(33)34-28(55)13-29(56)35-38-36-32(62-45(44(38)59,63-43(34)35)17-3-6-22(49)26(53)9-17)14-23(50)19-12-30(57)40(61-42(19)36)15-1-4-20(47)24(51)7-15/h1-11,13-14,30,37-41,44,46-59H,12H2/t30-,37+,38+,39+,40+,41+,44+,45+/m0/s1

> <PUBCHEM_IUPAC_INCHIKEY>
SRWJAXVAWDYXPA-ACNGEOCHSA-N

> <PUBCHEM_XLOGP3_AA>
3.3

> <PUBCHEM_EXACT_MASS>
864.190164

> <PUBCHEM_MOLECULAR_FORMULA>
C45H36O18

> <PUBCHEM_MOLECULAR_WEIGHT>
864.8

> <PUBCHEM_OPENEYE_CAN_SMILES>
C1C(C(OC2=C1C(=CC3=C2C4C(C(O3)(OC5=C(C(=CC(=C45)O)O)C6C(C(OC7=CC(=CC(=C67)O)O)C8=CC(=C(C=C8)O)O)O)C9=CC(=C(C=C9)O)O)O)O)C1=CC(=C(C=C1)O)O)O

> <PUBCHEM_OPENEYE_ISO_SMILES>
C1[C@@H]([C@H](OC2=C1C(=CC3=C2[C@@H]4[C@H]([C@](O3)(OC5=C(C(=CC(=C45)O)O)[C@@H]6[C@H]([C@H](OC7=CC(=CC(=C67)O)O)C8=CC(=C(C=C8)O)O)O)C9=CC(=C(C=C9)O)O)O)O)C1=CC(=C(C=C1)O)O)O

> <PUBCHEM_CACTVS_TPSA>
320

> <PUBCHEM_MONOISOTOPIC_WEIGHT>
864.190164

> <PUBCHEM_TOTAL_CHARGE>
0

> <PUBCHEM_HEAVY_ATOM_COUNT>
63

> <PUBCHEM_ATOM_DEF_STEREO_COUNT>
8

> <PUBCHEM_ATOM_UDEF_STEREO_COUNT>
0

> <PUBCHEM_BOND_DEF_STEREO_COUNT>
0

> <PUBCHEM_BOND_UDEF_STEREO_COUNT>
0

> <PUBCHEM_ISOTOPIC_ATOM_COUNT>
0

> <PUBCHEM_COMPONENT_COUNT>
1

> <PUBCHEM_CACTVS_TAUTO_COUNT>
-1

> <PUBCHEM_COORDINATE_TYPE>
1
5
255

> <PUBCHEM_BONDANNOTATIONS>
19  64  5
21  29  6
22  25  8
22  28  8
23  24  8
23  32  8
24  27  8
25  36  8
26  66  6
27  35  8
28  31  8
29  42  8
29  44  8
20  3  5
31  40  8
32  41  8
34  43  8
34  46  8
35  41  8
36  40  8
37  45  6
39  47  6
42  48  8
43  50  8
44  49  8
45  54  8
45  55  8
46  52  8
47  56  8
47  57  8
48  51  8
49  51  8
50  53  8
52  53  8
54  58  8
55  60  8
56  59  8
57  61  8
58  62  8
59  63  8
30  6  6
60  62  8
61  63  8
38  9  5

$$$$
