475277
  -OEChem-11212000002D

 99108  0     1  0  0  0  0  0999 V2000
    6.6345    2.9611    0.0000 O   0  0  0  0  0  0  0  0  0  0  0  0
   10.0994    3.0746    0.0000 O   0  0  0  0  0  0  0  0  0  0  0  0
    8.0445   -0.1852    0.0000 O   0  0  0  0  0  0  0  0  0  0  0  0
    7.4311    5.1209    0.0000 O   0  0  0  0  0  0  0  0  0  0  0  0
    6.9482   -2.7496    0.0000 O   0  0  0  0  0  0  0  0  0  0  0  0
    6.0107   -3.1497    0.0000 O   0  0  0  0  0  0  0  0  0  0  0  0
    4.3657    0.7649    0.0000 O   0  0  0  0  0  0  0  0  0  0  0  0
    9.0433   -0.1398    0.0000 O   0  0  0  0  0  0  0  0  0  0  0  0
    3.8026   -0.2063    0.0000 O   0  0  0  0  0  0  0  0  0  0  0  0
    4.9267   -5.6390    0.0000 O   0  0  0  0  0  0  0  0  0  0  0  0
   12.5417    0.4004    0.0000 O   0  0  0  0  0  0  0  0  0  0  0  0
    2.5127   -2.8846    0.0000 O   0  0  0  0  0  0  0  0  0  0  0  0
   11.1172    5.7217    0.0000 O   0  0  0  0  0  0  0  0  0  0  0  0
    9.7030    7.1359    0.0000 O   0  0  0  0  0  0  0  0  0  0  0  0
    9.5400   -4.3644    0.0000 O   0  0  0  0  0  0  0  0  0  0  0  0
   11.3274   -3.4669    0.0000 O   0  0  0  0  0  0  0  0  0  0  0  0
    7.4606   -7.3025    0.0000 O   0  0  0  0  0  0  0  0  0  0  0  0
    9.2582   -6.4258    0.0000 O   0  0  0  0  0  0  0  0  0  0  0  0
    8.4089    2.3063    0.0000 C   0  0  1  0  0  0  0  0  0  0  0  0
    7.9311    4.2548    0.0000 C   0  0  2  0  0  0  0  0  0  0  0  0
    8.6677    3.2722    0.0000 C   0  0  2  0  0  0  0  0  0  0  0  0
    7.1879    1.4406    0.0000 C   0  0  0  0  0  0  0  0  0  0  0  0
    6.1146   -1.1450    0.0000 C   0  0  1  0  0  0  0  0  0  0  0  0
    7.1313    0.4005    0.0000 C   0  0  0  0  0  0  0  0  0  0  0  0
    6.1986   -0.0633    0.0000 C   0  0  0  0  0  0  0  0  0  0  0  0
    7.0141   -1.7517    0.0000 C   0  0  2  0  0  0  0  0  0  0  0  0
    9.6806    1.5116    0.0000 C   0  0  0  0  0  0  0  0  0  0  0  0
    6.3589    1.9998    0.0000 C   0  0  0  0  0  0  0  0  0  0  0  0
    7.9856   -1.2686    0.0000 C   0  0  1  0  0  0  0  0  0  0  0  0
    5.2141   -1.5799    0.0000 C   0  0  0  0  0  0  0  0  0  0  0  0
   10.4577    2.1410    0.0000 C   0  0  0  0  0  0  0  0  0  0  0  0
    8.9266    4.2381    0.0000 C   0  0  0  0  0  0  0  0  0  0  0  0
    5.3350    0.5192    0.0000 C   0  0  0  0  0  0  0  0  0  0  0  0
    5.4157    1.5577    0.0000 C   0  0  0  0  0  0  0  0  0  0  0  0
    5.1405   -2.5772    0.0000 C   0  0  0  0  0  0  0  0  0  0  0  0
    9.8277    0.4805    0.0000 C   0  0  0  0  0  0  0  0  0  0  0  0
    8.8210   -1.8182    0.0000 C   0  0  0  0  0  0  0  0  0  0  0  0
    4.2400   -3.0121    0.0000 C   0  0  0  0  0  0  0  0  0  0  0  0
    4.3872   -1.0175    0.0000 C   0  0  0  0  0  0  0  0  0  0  0  0
   11.4358    1.7827    0.0000 C   0  0  0  0  0  0  0  0  0  0  0  0
    4.1473   -4.0496    0.0000 C   0  0  0  0  0  0  0  0  0  0  0  0
    5.9421   -4.1890    0.0000 C   0  0  1  0  0  0  0  0  0  0  0  0
    5.0041   -4.6420    0.0000 C   0  0  2  0  0  0  0  0  0  0  0  0
    9.8925    4.4970    0.0000 C   0  0  0  0  0  0  0  0  0  0  0  0
    8.2194    4.9452    0.0000 C   0  0  0  0  0  0  0  0  0  0  0  0
   10.7972    0.0997    0.0000 C   0  0  0  0  0  0  0  0  0  0  0  0
   11.6067    0.7552    0.0000 C   0  0  0  0  0  0  0  0  0  0  0  0
    3.4131   -2.4497    0.0000 C   0  0  0  0  0  0  0  0  0  0  0  0
    3.4867   -1.4524    0.0000 C   0  0  0  0  0  0  0  0  0  0  0  0
    8.7628   -2.8165    0.0000 C   0  0  0  0  0  0  0  0  0  0  0  0
    9.7147   -1.3694    0.0000 C   0  0  0  0  0  0  0  0  0  0  0  0
   10.1513    5.4629    0.0000 C   0  0  0  0  0  0  0  0  0  0  0  0
    8.4783    5.9112    0.0000 C   0  0  0  0  0  0  0  0  0  0  0  0
    6.7711   -4.7482    0.0000 C   0  0  0  0  0  0  0  0  0  0  0  0
    9.4442    6.1700    0.0000 C   0  0  0  0  0  0  0  0  0  0  0  0
    9.5982   -3.3660    0.0000 C   0  0  0  0  0  0  0  0  0  0  0  0
   10.5501   -1.9190    0.0000 C   0  0  0  0  0  0  0  0  0  0  0  0
   10.4919   -2.9173    0.0000 C   0  0  0  0  0  0  0  0  0  0  0  0
    6.7014   -5.7458    0.0000 C   0  0  0  0  0  0  0  0  0  0  0  0
    7.6699   -4.3098    0.0000 C   0  0  0  0  0  0  0  0  0  0  0  0
    7.5304   -6.3050    0.0000 C   0  0  0  0  0  0  0  0  0  0  0  0
    8.4989   -4.8690    0.0000 C   0  0  0  0  0  0  0  0  0  0  0  0
    8.4292   -5.8666    0.0000 C   0  0  0  0  0  0  0  0  0  0  0  0
    8.1889    1.4853    0.0000 H   0  0  0  0  0  0  0  0  0  0  0  0
    8.4486    4.5964    0.0000 H   0  0  0  0  0  0  0  0  0  0  0  0
    6.0536   -1.9928    0.0000 H   0  0  0  0  0  0  0  0  0  0  0  0
    6.4574   -2.0246    0.0000 H   0  0  0  0  0  0  0  0  0  0  0  0
    7.9483   -1.8875    0.0000 H   0  0  0  0  0  0  0  0  0  0  0  0
    4.9058    1.9103    0.0000 H   0  0  0  0  0  0  0  0  0  0  0  0
    6.8111    5.1209    0.0000 H   0  0  0  0  0  0  0  0  0  0  0  0
   11.9131    2.1785    0.0000 H   0  0  0  0  0  0  0  0  0  0  0  0
    3.5484   -3.8896    0.0000 H   0  0  0  0  0  0  0  0  0  0  0  0
    3.8872   -4.6124    0.0000 H   0  0  0  0  0  0  0  0  0  0  0  0
    7.4635   -3.0943    0.0000 H   0  0  0  0  0  0  0  0  0  0  0  0
    6.4988   -3.9162    0.0000 H   0  0  0  0  0  0  0  0  0  0  0  0
    5.5161   -4.9917    0.0000 H   0  0  0  0  0  0  0  0  0  0  0  0
   10.3309    4.0586    0.0000 H   0  0  0  0  0  0  0  0  0  0  0  0
    7.6206    4.7848    0.0000 H   0  0  0  0  0  0  0  0  0  0  0  0
   10.8918   -0.5131    0.0000 H   0  0  0  0  0  0  0  0  0  0  0  0
    2.9741   -1.1038    0.0000 H   0  0  0  0  0  0  0  0  0  0  0  0
    8.2087   -3.0947    0.0000 H   0  0  0  0  0  0  0  0  0  0  0  0
    4.1972    1.3616    0.0000 H   0  0  0  0  0  0  0  0  0  0  0  0
    9.7508   -0.7505    0.0000 H   0  0  0  0  0  0  0  0  0  0  0  0
    8.0399    6.3496    0.0000 H   0  0  0  0  0  0  0  0  0  0  0  0
    9.1332   -0.7533    0.0000 H   0  0  0  0  0  0  0  0  0  0  0  0
    3.1857   -0.2687    0.0000 H   0  0  0  0  0  0  0  0  0  0  0  0
   11.1042   -1.6408    0.0000 H   0  0  0  0  0  0  0  0  0  0  0  0
    4.3673   -5.9065    0.0000 H   0  0  0  0  0  0  0  0  0  0  0  0
   13.0220    0.7925    0.0000 H   0  0  0  0  0  0  0  0  0  0  0  0
    2.0000   -2.5360    0.0000 H   0  0  0  0  0  0  0  0  0  0  0  0
    6.1441   -6.0176    0.0000 H   0  0  0  0  0  0  0  0  0  0  0  0
    7.7132   -3.6914    0.0000 H   0  0  0  0  0  0  0  0  0  0  0  0
   11.2777    6.3206    0.0000 H   0  0  0  0  0  0  0  0  0  0  0  0
    9.2646    7.5743    0.0000 H   0  0  0  0  0  0  0  0  0  0  0  0
    9.0562   -4.5972    0.0000 H   0  0  0  0  0  0  0  0  0  0  0  0
   10.0580   -4.7051    0.0000 H   0  0  0  0  0  0  0  0  0  0  0  0
   11.8814   -3.1887    0.0000 H   0  0  0  0  0  0  0  0  0  0  0  0
    6.9034   -7.5743    0.0000 H   0  0  0  0  0  0  0  0  0  0  0  0
    9.2150   -7.0443    0.0000 H   0  0  0  0  0  0  0  0  0  0  0  0
  1 21  1  0  0  0  0
  1 28  1  0  0  0  0
  2 21  1  0  0  0  0
  2 31  1  0  0  0  0
  3 24  1  0  0  0  0
  3 29  1  0  0  0  0
 20  4  1  1  0  0  0
  4 70  1  0  0  0  0
 26  5  1  6  0  0  0
  5 74  1  0  0  0  0
  6 35  1  0  0  0  0
  6 42  1  0  0  0  0
  7 33  1  0  0  0  0
  7 82  1  0  0  0  0
  8 36  1  0  0  0  0
  8 85  1  0  0  0  0
  9 39  1  0  0  0  0
  9 86  1  0  0  0  0
 43 10  1  6  0  0  0
 10 88  1  0  0  0  0
 11 47  1  0  0  0  0
 11 89  1  0  0  0  0
 12 48  1  0  0  0  0
 12 90  1  0  0  0  0
 13 52  1  0  0  0  0
 13 93  1  0  0  0  0
 14 55  1  0  0  0  0
 14 94  1  0  0  0  0
 15 56  1  0  0  0  0
 15 96  1  0  0  0  0
 16 58  1  0  0  0  0
 16 97  1  0  0  0  0
 17 61  1  0  0  0  0
 17 98  1  0  0  0  0
 18 63  1  0  0  0  0
 18 99  1  0  0  0  0
 19 20  1  0  0  0  0
 19 22  1  0  0  0  0
 19 27  1  0  0  0  0
 19 64  1  1  0  0  0
 20 21  1  0  0  0  0
 20 65  1  0  0  0  0
 21 32  1  6  0  0  0
 22 24  1  0  0  0  0
 22 28  2  0  0  0  0
 23 25  1  0  0  0  0
 23 26  1  0  0  0  0
 23 30  1  0  0  0  0
 23 66  1  6  0  0  0
 24 25  2  0  0  0  0
 25 33  1  0  0  0  0
 26 29  1  0  0  0  0
 26 67  1  0  0  0  0
 27 31  1  0  0  0  0
 27 36  2  0  0  0  0
 28 34  1  0  0  0  0
 29 37  1  6  0  0  0
 29 68  1  0  0  0  0
 30 35  1  0  0  0  0
 30 39  2  0  0  0  0
 31 40  2  0  0  0  0
 32 44  2  0  0  0  0
 32 45  1  0  0  0  0
 33 34  2  0  0  0  0
 34 69  1  0  0  0  0
 35 38  2  0  0  0  0
 36 46  1  0  0  0  0
 37 50  2  0  0  0  0
 37 51  1  0  0  0  0
 38 41  1  0  0  0  0
 38 48  1  0  0  0  0
 39 49  1  0  0  0  0
 40 47  1  0  0  0  0
 40 71  1  0  0  0  0
 41 43  1  0  0  0  0
 41 72  1  0  0  0  0
 41 73  1  0  0  0  0
 42 43  1  0  0  0  0
 42 54  1  6  0  0  0
 42 75  1  0  0  0  0
 43 76  1  0  0  0  0
 44 52  1  0  0  0  0
 44 77  1  0  0  0  0
 45 53  2  0  0  0  0
 45 78  1  0  0  0  0
 46 47  2  0  0  0  0
 46 79  1  0  0  0  0
 48 49  2  0  0  0  0
 49 80  1  0  0  0  0
 50 56  1  0  0  0  0
 50 81  1  0  0  0  0
 51 57  2  0  0  0  0
 51 83  1  0  0  0  0
 52 55  2  0  0  0  0
 53 55  1  0  0  0  0
 53 84  1  0  0  0  0
 54 59  2  0  0  0  0
 54 60  1  0  0  0  0
 56 58  2  0  0  0  0
 57 58  1  0  0  0  0
 57 87  1  0  0  0  0
 59 61  1  0  0  0  0
 59 91  1  0  0  0  0
 60 62  2  0  0  0  0
 60 92  1  0  0  0  0
 61 63  2  0  0  0  0
 62 63  1  0  0  0  0
 62 95  1  0  0  0  0
M  END
> <PUBCHEM_COMPOUND_CID>
475277

> <PUBCHEM_COMPOUND_CANONICALIZED>
1

> <PUBCHEM_CACTVS_COMPLEXITY>
1610

> <PUBCHEM_CACTVS_HBOND_ACCEPTOR>
18

> <PUBCHEM_CACTVS_HBOND_DONOR>
14

> <PUBCHEM_CACTVS_ROTATABLE_BOND>
4

> <PUBCHEM_CACTVS_SUBSKEYS>
AAADcfB8PgAAAAAAAAAAAAAAAAAAAAAAAAA0aNGjAAASAACRVAAAGgAACAAADRSgmAIwDoAABgCAAiBCAAACCAAgIAAIiAAGiIgdNyKGMRqieCGlwBUPuAfA4PwOoAADCAAIQABAAAYQABCAAAAAAAAAAA==

> <PUBCHEM_IUPAC_OPENEYE_NAME>
(1R,5R,6R,7S,13S,21R)-5,13-bis(3,4-dihydroxyphenyl)-7-[(2R,3R)-2-(3,4-dihydroxyphenyl)-3,5,7-trihydroxy-chroman-8-yl]-4,12,14-trioxapentacyclo[11.7.1.02,11.03,8.015,20]henicosa-2(11),3(8),9,15,17,19-hexaene-6,9,17,19,21-pentol

> <PUBCHEM_IUPAC_CAS_NAME>
(1R,5R,6R,7S,13S,21R)-5,13-bis(3,4-dihydroxyphenyl)-7-[(2R,3R)-2-(3,4-dihydroxyphenyl)-3,5,7-trihydroxy-3,4-dihydro-2H-1-benzopyran-8-yl]-4,12,14-trioxapentacyclo[11.7.1.02,11.03,8.015,20]heneicosa-2(11),3(8),9,15,17,19-hexaene-6,9,17,19,21-pentol

> <PUBCHEM_IUPAC_NAME_MARKUP>
(1<I>R</I>,5<I>R</I>,6<I>R</I>,7<I>S</I>,13<I>S</I>,21<I>R</I>)-5,13-bis(3,4-dihydroxyphenyl)-7-[(2<I>R</I>,3<I>R</I>)-2-(3,4-dihydroxyphenyl)-3,5,7-trihydroxy-3,4-dihydro-2<I>H</I>-chromen-8-yl]-4,12,14-trioxapentacyclo[11.7.1.0<SUP>2,11</SUP>.0<SUP>3,8</SUP>.0<SUP>15,20</SUP>]henicosa-2(11),3(8),9,15,17,19-hexaene-6,9,17,19,21-pentol

> <PUBCHEM_IUPAC_NAME>
(1R,5R,6R,7S,13S,21R)-5,13-bis(3,4-dihydroxyphenyl)-7-[(2R,3R)-2-(3,4-dihydroxyphenyl)-3,5,7-trihydroxy-3,4-dihydro-2H-chromen-8-yl]-4,12,14-trioxapentacyclo[11.7.1.02,11.03,8.015,20]henicosa-2(11),3(8),9,15,17,19-hexaene-6,9,17,19,21-pentol

> <PUBCHEM_IUPAC_SYSTEMATIC_NAME>
(1R,5R,6R,7S,13S,21R)-5,13-bis[3,4-bis(oxidanyl)phenyl]-7-[(2R,3R)-2-[3,4-bis(oxidanyl)phenyl]-3,5,7-tris(oxidanyl)-3,4-dihydro-2H-chromen-8-yl]-4,12,14-trioxapentacyclo[11.7.1.02,11.03,8.015,20]henicosa-2(11),3(8),9,15,17,19-hexaene-6,9,17,19,21-pentol

> <PUBCHEM_IUPAC_TRADITIONAL_NAME>
(1R,5R,6R,7S,13S,21R)-5,13-bis(3,4-dihydroxyphenyl)-7-[(2R,3R)-2-(3,4-dihydroxyphenyl)-3,5,7-trihydroxy-chroman-8-yl]-4,12,14-trioxapentacyclo[11.7.1.02,11.03,8.015,20]heneicosa-2(11),3(8),9,15,17,19-hexaene-6,9,17,19,21-pentol

> <PUBCHEM_IUPAC_INCHI>
InChI=1S/C45H36O18/c46-18-10-27(54)33-31(11-18)62-45(17-3-6-22(49)26(53)9-17)44(59)38(33)36-32(63-45)14-29(56)35-37(39(58)41(61-43(35)36)16-2-5-21(48)25(52)8-16)34-28(55)13-23(50)19-12-30(57)40(60-42(19)34)15-1-4-20(47)24(51)7-15/h1-11,13-14,30,37-41,44,46-59H,12H2/t30-,37+,38-,39-,40-,41-,44-,45+/m1/s1

> <PUBCHEM_IUPAC_INCHIKEY>
BYSRPHRKESMCPO-LQNPQWRQSA-N

> <PUBCHEM_XLOGP3_AA>
3.3

> <PUBCHEM_EXACT_MASS>
864.190164

> <PUBCHEM_MOLECULAR_FORMULA>
C45H36O18

> <PUBCHEM_MOLECULAR_WEIGHT>
864.8

> <PUBCHEM_OPENEYE_CAN_SMILES>
C1C(C(OC2=C1C(=CC(=C2C3C(C(OC4=C3C(=CC5=C4C6C(C(O5)(OC7=CC(=CC(=C67)O)O)C8=CC(=C(C=C8)O)O)O)O)C9=CC(=C(C=C9)O)O)O)O)O)C1=CC(=C(C=C1)O)O)O

> <PUBCHEM_OPENEYE_ISO_SMILES>
C1[C@H]([C@H](OC2=C1C(=CC(=C2[C@@H]3[C@H]([C@H](OC4=C3C(=CC5=C4[C@@H]6[C@H]([C@](O5)(OC7=CC(=CC(=C67)O)O)C8=CC(=C(C=C8)O)O)O)O)C9=CC(=C(C=C9)O)O)O)O)O)C1=CC(=C(C=C1)O)O)O

> <PUBCHEM_CACTVS_TPSA>
320

> <PUBCHEM_MONOISOTOPIC_WEIGHT>
864.190164

> <PUBCHEM_TOTAL_CHARGE>
0

> <PUBCHEM_HEAVY_ATOM_COUNT>
63

> <PUBCHEM_ATOM_DEF_STEREO_COUNT>
8

> <PUBCHEM_ATOM_UDEF_STEREO_COUNT>
0

> <PUBCHEM_BOND_DEF_STEREO_COUNT>
0

> <PUBCHEM_BOND_UDEF_STEREO_COUNT>
0

> <PUBCHEM_ISOTOPIC_ATOM_COUNT>
0

> <PUBCHEM_COMPONENT_COUNT>
1

> <PUBCHEM_CACTVS_TAUTO_COUNT>
-1

> <PUBCHEM_COORDINATE_TYPE>
1
5
255

> <PUBCHEM_BONDANNOTATIONS>
43  10  6
19  64  5
21  32  6
22  24  8
22  28  8
23  66  6
24  25  8
25  33  8
27  31  8
27  36  8
28  34  8
29  37  6
30  35  8
30  39  8
31  40  8
32  44  8
32  45  8
33  34  8
35  38  8
36  46  8
37  50  8
37  51  8
38  48  8
39  49  8
20  4  5
40  47  8
42  54  6
44  52  8
45  53  8
46  47  8
48  49  8
26  5  6
50  56  8
51  57  8
52  55  8
53  55  8
54  59  8
54  60  8
56  58  8
57  58  8
59  61  8
60  62  8
61  63  8
62  63  8

$$$$
