107793
  -OEChem-09172015172D

123130  0     1  0  0  0  0  0999 V2000
    8.3757    4.8469    0.0000 O   0  0  0  0  0  0  0  0  0  0  0  0
   10.3994    6.1356    0.0000 O   0  0  0  0  0  0  0  0  0  0  0  0
    7.7331   -1.7536    0.0000 O   0  0  0  0  0  0  0  0  0  0  0  0
   10.2163   -1.0392    0.0000 O   0  0  0  0  0  0  0  0  0  0  0  0
    6.0010   -1.7536    0.0000 O   0  0  0  0  0  0  0  0  0  0  0  0
    7.7331   -3.7536    0.0000 O   0  0  0  0  0  0  0  0  0  0  0  0
    6.0010   -4.7536    0.0000 O   0  0  0  0  0  0  0  0  0  0  0  0
    4.2690   -3.7536    0.0000 O   0  0  0  0  0  0  0  0  0  0  0  0
    4.2690   -4.7536    0.0000 O   0  0  0  0  0  0  0  0  0  0  0  0
    6.0010   -6.7536    0.0000 O   0  0  0  0  0  0  0  0  0  0  0  0
    4.2690   -7.7536    0.0000 O   0  0  0  0  0  0  0  0  0  0  0  0
    2.5369   -6.7536    0.0000 O   0  0  0  0  0  0  0  0  0  0  0  0
    2.5369   -3.7536    0.0000 O   0  0  0  0  0  0  0  0  0  0  0  0
    8.6596    4.1422    0.0000 C   0  0  2  0  0  0  0  0  0  0  0  0
    7.7955    4.6456    0.0000 C   0  0  2  0  0  0  0  0  0  0  0  0
    8.6717    3.1007    0.0000 C   0  0  1  0  0  0  0  0  0  0  0  0
    7.7994    5.6456    0.0000 C   0  0  1  0  0  0  0  0  0  0  0  0
    8.6673    6.1422    0.0000 C   0  0  2  0  0  0  0  0  0  0  0  0
    7.7716    2.5764    0.0000 C   0  0  1  0  0  0  0  0  0  0  0  0
    7.7590    1.4915    0.0000 C   0  0  2  0  0  0  0  0  0  0  0  0
    9.5276    4.6389    0.0000 C   0  0  0  0  0  0  0  0  0  0  0  0
    9.5314    5.6389    0.0000 C   0  0  1  0  0  0  0  0  0  0  0  0
    8.6966    0.9454    0.0000 C   0  0  1  0  0  0  0  0  0  0  0  0
    9.6216    2.5764    0.0000 C   0  0  0  0  0  0  0  0  0  0  0  0
    8.7784    5.5382    0.0000 C   0  0  0  0  0  0  0  0  0  0  0  0
    6.8913    6.1559    0.0000 C   0  0  0  0  0  0  0  0  0  0  0  0
    8.6874    7.1837    0.0000 C   0  0  0  0  0  0  0  0  0  0  0  0
    6.8836    4.1422    0.0000 C   0  0  0  0  0  0  0  0  0  0  0  0
    9.6341    1.4915    0.0000 C   0  0  0  0  0  0  0  0  0  0  0  0
    9.6438    3.9648    0.0000 C   0  0  0  0  0  0  0  0  0  0  0  0
    6.8715    3.1007    0.0000 C   0  0  0  0  0  0  0  0  0  0  0  0
    6.8873    7.1976    0.0000 C   0  0  0  0  0  0  0  0  0  0  0  0
    8.7096   -0.1847    0.0000 C   0  0  1  0  0  0  0  0  0  0  0  0
    9.6558    3.2781    0.0000 C   0  0  0  0  0  0  0  0  0  0  0  0
    6.7696    0.9454    0.0000 C   0  0  0  0  0  0  0  0  0  0  0  0
    7.7914    7.7149    0.0000 C   0  0  0  0  0  0  0  0  0  0  0  0
    6.8950    1.9948    0.0000 C   0  0  0  0  0  0  0  0  0  0  0  0
    7.7331   -0.7536    0.0000 C   0  0  2  0  0  0  0  0  0  0  0  0
    6.7565   -0.1847    0.0000 C   0  0  0  0  0  0  0  0  0  0  0  0
    9.7096   -0.1770    0.0000 C   0  0  0  0  0  0  0  0  0  0  0  0
    6.3873    8.0636    0.0000 C   0  0  0  0  0  0  0  0  0  0  0  0
    5.8873    7.1976    0.0000 C   0  0  0  0  0  0  0  0  0  0  0  0
    9.2163   -1.0469    0.0000 C   0  0  0  0  0  0  0  0  0  0  0  0
    6.8671   -2.2536    0.0000 C   0  0  2  0  0  0  0  0  0  0  0  0
    6.8671   -3.2536    0.0000 C   0  0  1  0  0  0  0  0  0  0  0  0
    6.0010   -3.7536    0.0000 C   0  0  2  0  0  0  0  0  0  0  0  0
    5.1350   -2.2536    0.0000 C   0  0  1  0  0  0  0  0  0  0  0  0
    5.1350   -3.2536    0.0000 C   0  0  2  0  0  0  0  0  0  0  0  0
    4.2690   -1.7536    0.0000 C   0  0  0  0  0  0  0  0  0  0  0  0
    5.1350   -5.2536    0.0000 C   0  0  2  0  0  0  0  0  0  0  0  0
    5.1350   -6.2536    0.0000 C   0  0  1  0  0  0  0  0  0  0  0  0
    4.2690   -6.7536    0.0000 C   0  0  2  0  0  0  0  0  0  0  0  0
    3.4030   -5.2536    0.0000 C   0  0  1  0  0  0  0  0  0  0  0  0
    3.4030   -6.2536    0.0000 C   0  0  1  0  0  0  0  0  0  0  0  0
    2.5369   -4.7536    0.0000 C   0  0  0  0  0  0  0  0  0  0  0  0
    7.0616    5.2234    0.0000 H   0  0  0  0  0  0  0  0  0  0  0  0
    7.0322    2.1571    0.0000 H   0  0  0  0  0  0  0  0  0  0  0  0
    9.7374    4.0555    0.0000 H   0  0  0  0  0  0  0  0  0  0  0  0
   10.1386    4.7442    0.0000 H   0  0  0  0  0  0  0  0  0  0  0  0
   10.0672    5.3268    0.0000 H   0  0  0  0  0  0  0  0  0  0  0  0
    9.4360    0.5261    0.0000 H   0  0  0  0  0  0  0  0  0  0  0  0
   10.2336    2.4774    0.0000 H   0  0  0  0  0  0  0  0  0  0  0  0
    9.8239    3.1625    0.0000 H   0  0  0  0  0  0  0  0  0  0  0  0
    9.2038    5.0872    0.0000 H   0  0  0  0  0  0  0  0  0  0  0  0
    9.3314    5.8185    0.0000 H   0  0  0  0  0  0  0  0  0  0  0  0
    6.2801    6.2597    0.0000 H   0  0  0  0  0  0  0  0  0  0  0  0
    6.6845    5.5714    0.0000 H   0  0  0  0  0  0  0  0  0  0  0  0
    9.2961    7.0658    0.0000 H   0  0  0  0  0  0  0  0  0  0  0  0
    8.9077    7.7632    0.0000 H   0  0  0  0  0  0  0  0  0  0  0  0
    6.3515    4.4605    0.0000 H   0  0  0  0  0  0  0  0  0  0  0  0
    9.8499    0.9102    0.0000 H   0  0  0  0  0  0  0  0  0  0  0  0
   10.2437    1.6046    0.0000 H   0  0  0  0  0  0  0  0  0  0  0  0
    9.5337    3.3546    0.0000 H   0  0  0  0  0  0  0  0  0  0  0  0
   10.2539    3.8548    0.0000 H   0  0  0  0  0  0  0  0  0  0  0  0
    9.7538    4.5750    0.0000 H   0  0  0  0  0  0  0  0  0  0  0  0
    6.3322    2.7948    0.0000 H   0  0  0  0  0  0  0  0  0  0  0  0
    9.7658    2.6680    0.0000 H   0  0  0  0  0  0  0  0  0  0  0  0
   10.2660    3.3882    0.0000 H   0  0  0  0  0  0  0  0  0  0  0  0
    9.5458    3.8883    0.0000 H   0  0  0  0  0  0  0  0  0  0  0  0
    6.5673    1.5314    0.0000 H   0  0  0  0  0  0  0  0  0  0  0  0
    6.1575    0.8463    0.0000 H   0  0  0  0  0  0  0  0  0  0  0  0
    8.1942    8.1862    0.0000 H   0  0  0  0  0  0  0  0  0  0  0  0
    7.3959    8.1924    0.0000 H   0  0  0  0  0  0  0  0  0  0  0  0
    7.2070    2.5306    0.0000 H   0  0  0  0  0  0  0  0  0  0  0  0
    6.3592    2.3069    0.0000 H   0  0  0  0  0  0  0  0  0  0  0  0
    6.5829    1.4591    0.0000 H   0  0  0  0  0  0  0  0  0  0  0  0
    7.1956   -1.0625    0.0000 H   0  0  0  0  0  0  0  0  0  0  0  0
    6.1469   -0.0716    0.0000 H   0  0  0  0  0  0  0  0  0  0  0  0
    6.5407   -0.7660    0.0000 H   0  0  0  0  0  0  0  0  0  0  0  0
   10.9351    5.8235    0.0000 H   0  0  0  0  0  0  0  0  0  0  0  0
   10.2906    0.0395    0.0000 H   0  0  0  0  0  0  0  0  0  0  0  0
    9.5973    0.4327    0.0000 H   0  0  0  0  0  0  0  0  0  0  0  0
    6.9243    8.3736    0.0000 H   0  0  0  0  0  0  0  0  0  0  0  0
    6.0773    8.6005    0.0000 H   0  0  0  0  0  0  0  0  0  0  0  0
    5.8504    7.7536    0.0000 H   0  0  0  0  0  0  0  0  0  0  0  0
    5.8873    7.8176    0.0000 H   0  0  0  0  0  0  0  0  0  0  0  0
    5.2673    7.1976    0.0000 H   0  0  0  0  0  0  0  0  0  0  0  0
    5.8873    6.5776    0.0000 H   0  0  0  0  0  0  0  0  0  0  0  0
    8.6818   -1.3610    0.0000 H   0  0  0  0  0  0  0  0  0  0  0  0
    9.5304   -1.5814    0.0000 H   0  0  0  0  0  0  0  0  0  0  0  0
    9.7508   -0.7327    0.0000 H   0  0  0  0  0  0  0  0  0  0  0  0
   10.8363   -1.0344    0.0000 H   0  0  0  0  0  0  0  0  0  0  0  0
    7.4040   -2.5636    0.0000 H   0  0  0  0  0  0  0  0  0  0  0  0
    6.8671   -3.8736    0.0000 H   0  0  0  0  0  0  0  0  0  0  0  0
    5.4641   -4.0636    0.0000 H   0  0  0  0  0  0  0  0  0  0  0  0
    5.1350   -1.6336    0.0000 H   0  0  0  0  0  0  0  0  0  0  0  0
    4.5981   -2.9436    0.0000 H   0  0  0  0  0  0  0  0  0  0  0  0
    7.7331   -4.3736    0.0000 H   0  0  0  0  0  0  0  0  0  0  0  0
    4.5790   -1.2166    0.0000 H   0  0  0  0  0  0  0  0  0  0  0  0
    3.7320   -1.4436    0.0000 H   0  0  0  0  0  0  0  0  0  0  0  0
    3.9590   -2.2905    0.0000 H   0  0  0  0  0  0  0  0  0  0  0  0
    3.7320   -3.4436    0.0000 H   0  0  0  0  0  0  0  0  0  0  0  0
    5.1350   -4.6336    0.0000 H   0  0  0  0  0  0  0  0  0  0  0  0
    5.1350   -6.8736    0.0000 H   0  0  0  0  0  0  0  0  0  0  0  0
    3.7320   -7.0636    0.0000 H   0  0  0  0  0  0  0  0  0  0  0  0
    3.4030   -4.6336    0.0000 H   0  0  0  0  0  0  0  0  0  0  0  0
    3.4030   -6.8736    0.0000 H   0  0  0  0  0  0  0  0  0  0  0  0
    6.0010   -7.3736    0.0000 H   0  0  0  0  0  0  0  0  0  0  0  0
    1.9264   -4.6459    0.0000 H   0  0  0  0  0  0  0  0  0  0  0  0
    2.3249   -5.3362    0.0000 H   0  0  0  0  0  0  0  0  0  0  0  0
    3.7320   -8.0636    0.0000 H   0  0  0  0  0  0  0  0  0  0  0  0
    2.0000   -6.4436    0.0000 H   0  0  0  0  0  0  0  0  0  0  0  0
    2.0000   -3.4436    0.0000 H   0  0  0  0  0  0  0  0  0  0  0  0
  1 15  1  0  0  0  0
  1 25  1  0  0  0  0
 22  2  1  6  0  0  0
  2 90  1  0  0  0  0
 38  3  1  1  0  0  0
 44  3  1  1  0  0  0
  4 40  1  0  0  0  0
  4102  1  0  0  0  0
  5 44  1  0  0  0  0
  5 47  1  0  0  0  0
 45  6  1  6  0  0  0
  6108  1  0  0  0  0
 46  7  1  1  0  0  0
 50  7  1  1  0  0  0
 48  8  1  1  0  0  0
  8112  1  0  0  0  0
  9 50  1  0  0  0  0
  9 53  1  0  0  0  0
 51 10  1  6  0  0  0
 10118  1  0  0  0  0
 52 11  1  1  0  0  0
 11121  1  0  0  0  0
 54 12  1  6  0  0  0
 12122  1  0  0  0  0
 13 55  1  0  0  0  0
 13123  1  0  0  0  0
 14 15  1  0  0  0  0
 14 16  1  0  0  0  0
 14 21  1  0  0  0  0
 14 30  1  6  0  0  0
 15 17  1  0  0  0  0
 15 28  1  1  0  0  0
 16 19  1  0  0  0  0
 16 24  1  0  0  0  0
 16 34  1  1  0  0  0
 17 18  1  0  0  0  0
 17 26  1  0  0  0  0
 17 56  1  1  0  0  0
 18 22  1  0  0  0  0
 18 25  1  0  0  0  0
 18 27  1  1  0  0  0
 19 20  1  0  0  0  0
 19 31  1  0  0  0  0
 19 57  1  6  0  0  0
 20 23  1  0  0  0  0
 20 35  1  0  0  0  0
 20 37  1  1  0  0  0
 21 22  1  0  0  0  0
 21 58  1  0  0  0  0
 21 59  1  0  0  0  0
 22 60  1  0  0  0  0
 23 29  1  0  0  0  0
 23 33  1  0  0  0  0
 23 61  1  6  0  0  0
 24 29  1  0  0  0  0
 24 62  1  0  0  0  0
 24 63  1  0  0  0  0
 25 64  1  0  0  0  0
 25 65  1  0  0  0  0
 26 32  1  0  0  0  0
 26 66  1  0  0  0  0
 26 67  1  0  0  0  0
 27 36  1  0  0  0  0
 27 68  1  0  0  0  0
 27 69  1  0  0  0  0
 28 31  2  0  0  0  0
 28 70  1  0  0  0  0
 29 71  1  0  0  0  0
 29 72  1  0  0  0  0
 30 73  1  0  0  0  0
 30 74  1  0  0  0  0
 30 75  1  0  0  0  0
 31 76  1  0  0  0  0
 32 36  1  0  0  0  0
 32 41  1  0  0  0  0
 32 42  1  0  0  0  0
 33 38  1  0  0  0  0
 33 40  1  0  0  0  0
 33 43  1  1  0  0  0
 34 77  1  0  0  0  0
 34 78  1  0  0  0  0
 34 79  1  0  0  0  0
 35 39  1  0  0  0  0
 35 80  1  0  0  0  0
 35 81  1  0  0  0  0
 36 82  1  0  0  0  0
 36 83  1  0  0  0  0
 37 84  1  0  0  0  0
 37 85  1  0  0  0  0
 37 86  1  0  0  0  0
 38 39  1  0  0  0  0
 38 87  1  0  0  0  0
 39 88  1  0  0  0  0
 39 89  1  0  0  0  0
 40 91  1  0  0  0  0
 40 92  1  0  0  0  0
 41 93  1  0  0  0  0
 41 94  1  0  0  0  0
 41 95  1  0  0  0  0
 42 96  1  0  0  0  0
 42 97  1  0  0  0  0
 42 98  1  0  0  0  0
 43 99  1  0  0  0  0
 43100  1  0  0  0  0
 43101  1  0  0  0  0
 44 45  1  0  0  0  0
 44103  1  0  0  0  0
 45 46  1  0  0  0  0
 45104  1  0  0  0  0
 46 48  1  0  0  0  0
 46105  1  0  0  0  0
 47 48  1  0  0  0  0
 47 49  1  1  0  0  0
 47106  1  0  0  0  0
 48107  1  0  0  0  0
 49109  1  0  0  0  0
 49110  1  0  0  0  0
 49111  1  0  0  0  0
 50 51  1  0  0  0  0
 50113  1  0  0  0  0
 51 52  1  0  0  0  0
 51114  1  0  0  0  0
 52 54  1  0  0  0  0
 52115  1  0  0  0  0
 53 54  1  0  0  0  0
 53 55  1  1  0  0  0
 53116  1  0  0  0  0
 54117  1  0  0  0  0
 55119  1  0  0  0  0
 55120  1  0  0  0  0
M  END
> <PUBCHEM_COMPOUND_CID>
107793

> <PUBCHEM_COMPOUND_CANONICALIZED>
1

> <PUBCHEM_CACTVS_COMPLEXITY>
1490

> <PUBCHEM_CACTVS_HBOND_ACCEPTOR>
13

> <PUBCHEM_CACTVS_HBOND_DONOR>
8

> <PUBCHEM_CACTVS_ROTATABLE_BOND>
6

> <PUBCHEM_CACTVS_SUBSKEYS>
AAADcfB8PAAAAAAAAAAAAAAAAAAAASAAAAA0aMGCBIAAAEjAAAAAGgAACAAAD1SwgAMCCAAABgCAACBCAAAAAAAgAAAICAAAAAgRFAIAIQAiUAAFgAAPIAPA4PwPgAAAAAAAAADCAAYAADAAAAAAAAAAAA==

> <PUBCHEM_IUPAC_OPENEYE_NAME>
(2S,3R,4S,5S,6R)-2-[(2R,3R,4S,5S,6R)-3,5-dihydroxy-2-[[(1S,2R,4S,5R,8R,9R,10S,13S,14R,17S,18R)-2-hydroxy-9-(hydroxymethyl)-4,5,9,13,20,20-hexamethyl-24-oxahexacyclo[15.5.2.01,18.04,17.05,14.08,13]tetracos-15-en-10-yl]oxy]-6-methyl-tetrahydropyran-4-yl]oxy-6-(hydroxymethyl)tetrahydropyran-3,4,5-triol

> <PUBCHEM_IUPAC_CAS_NAME>
(2S,3R,4S,5S,6R)-2-[[(2R,3R,4S,5S,6R)-3,5-dihydroxy-2-[[(1S,2R,4S,5R,8R,9R,10S,13S,14R,17S,18R)-2-hydroxy-9-(hydroxymethyl)-4,5,9,13,20,20-hexamethyl-24-oxahexacyclo[15.5.2.01,18.04,17.05,14.08,13]tetracos-15-en-10-yl]oxy]-6-methyl-4-oxanyl]oxy]-6-(hydroxymethyl)oxane-3,4,5-triol

> <PUBCHEM_IUPAC_NAME_MARKUP>
(2<I>S</I>,3<I>R</I>,4<I>S</I>,5<I>S</I>,6<I>R</I>)-2-[(2<I>R</I>,3<I>R</I>,4<I>S</I>,5<I>S</I>,6<I>R</I>)-3,5-dihydroxy-2-[[(1<I>S</I>,2<I>R</I>,4<I>S</I>,5<I>R</I>,8<I>R</I>,9<I>R</I>,10<I>S</I>,13<I>S</I>,14<I>R</I>,17<I>S</I>,18<I>R</I>)-2-hydroxy-9-(hydroxymethyl)-4,5,9,13,20,20-hexamethyl-24-oxahexacyclo[15.5.2.0<SUP>1,18</SUP>.0<SUP>4,17</SUP>.0<SUP>5,14</SUP>.0<SUP>8,13</SUP>]tetracos-15-en-10-yl]oxy]-6-methyloxan-4-yl]oxy-6-(hydroxymethyl)oxane-3,4,5-triol

> <PUBCHEM_IUPAC_NAME>
(2S,3R,4S,5S,6R)-2-[(2R,3R,4S,5S,6R)-3,5-dihydroxy-2-[[(1S,2R,4S,5R,8R,9R,10S,13S,14R,17S,18R)-2-hydroxy-9-(hydroxymethyl)-4,5,9,13,20,20-hexamethyl-24-oxahexacyclo[15.5.2.01,18.04,17.05,14.08,13]tetracos-15-en-10-yl]oxy]-6-methyloxan-4-yl]oxy-6-(hydroxymethyl)oxane-3,4,5-triol

> <PUBCHEM_IUPAC_SYSTEMATIC_NAME>
(2R,3S,4S,5R,6S)-2-(hydroxymethyl)-6-[(2R,3R,4S,5S,6R)-2-[[(1S,2R,4S,5R,8R,9R,10S,13S,14R,17S,18R)-9-(hydroxymethyl)-4,5,9,13,20,20-hexamethyl-2-oxidanyl-24-oxahexacyclo[15.5.2.01,18.04,17.05,14.08,13]tetracos-15-en-10-yl]oxy]-6-methyl-3,5-bis(oxidanyl)oxan-4-yl]oxy-oxane-3,4,5-triol

> <PUBCHEM_IUPAC_TRADITIONAL_NAME>
(2S,3R,4S,5S,6R)-2-[(2R,3R,4S,5S,6R)-3,5-dihydroxy-2-[[(1S,2R,4S,5R,8R,9R,10S,13S,14R,17S,18R)-2-hydroxy-4,5,9,13,20,20-hexamethyl-9-methylol-24-oxahexacyclo[15.5.2.01,18.04,17.05,14.08,13]tetracos-15-en-10-yl]oxy]-6-methyl-tetrahydropyran-4-yl]oxy-6-methylol-tetrahydropyran-3,4,5-triol

> <PUBCHEM_IUPAC_INCHI>
InChI=1S/C42H68O13/c1-21-28(46)33(55-34-31(49)30(48)29(47)22(18-43)53-34)32(50)35(52-21)54-27-10-11-37(4)23(38(27,5)19-44)8-12-39(6)24(37)9-13-42-25-16-36(2,3)14-15-41(25,20-51-42)26(45)17-40(39,42)7/h9,13,21-35,43-50H,8,10-12,14-20H2,1-7H3/t21-,22-,23-,24-,25-,26-,27+,28+,29-,30+,31-,32-,33+,34+,35+,37+,38+,39-,40+,41-,42+/m1/s1

> <PUBCHEM_IUPAC_INCHIKEY>
KYWSCMDFVARMPN-LCSVLAELSA-N

> <PUBCHEM_XLOGP3_AA>
2.5

> <PUBCHEM_EXACT_MASS>
780.465992

> <PUBCHEM_MOLECULAR_FORMULA>
C42H68O13

> <PUBCHEM_MOLECULAR_WEIGHT>
781

> <PUBCHEM_OPENEYE_CAN_SMILES>
CC1C(C(C(C(O1)OC2CCC3(C(C2(C)CO)CCC4(C3C=CC56C4(CC(C7(C5CC(CC7)(C)C)CO6)O)C)C)C)O)OC8C(C(C(C(O8)CO)O)O)O)O

> <PUBCHEM_OPENEYE_ISO_SMILES>
C[C@@H]1[C@@H]([C@@H]([C@H]([C@@H](O1)O[C@H]2CC[C@]3([C@H]([C@]2(C)CO)CC[C@@]4([C@@H]3C=C[C@@]56[C@]4(C[C@H]([C@@]7([C@H]5CC(CC7)(C)C)CO6)O)C)C)C)O)O[C@H]8[C@@H]([C@H]([C@@H]([C@H](O8)CO)O)O)O)O

> <PUBCHEM_CACTVS_TPSA>
208

> <PUBCHEM_MONOISOTOPIC_WEIGHT>
780.465992

> <PUBCHEM_TOTAL_CHARGE>
0

> <PUBCHEM_HEAVY_ATOM_COUNT>
55

> <PUBCHEM_ATOM_DEF_STEREO_COUNT>
21

> <PUBCHEM_ATOM_UDEF_STEREO_COUNT>
0

> <PUBCHEM_BOND_DEF_STEREO_COUNT>
0

> <PUBCHEM_BOND_UDEF_STEREO_COUNT>
0

> <PUBCHEM_ISOTOPIC_ATOM_COUNT>
0

> <PUBCHEM_COMPONENT_COUNT>
1

> <PUBCHEM_CACTVS_TAUTO_COUNT>
-1

> <PUBCHEM_COORDINATE_TYPE>
1
5
255

> <PUBCHEM_BONDANNOTATIONS>
51  10  6
52  11  5
54  12  6
14  30  6
15  28  5
16  34  5
17  56  5
18  27  5
19  57  6
22  2  6
20  37  5
23  61  6
38  3  5
44  3  5
33  43  5
47  49  5
53  55  5
45  6  6
46  7  5
50  7  5
48  8  5

$$$$
