101690817
  -OEChem-09172015202D

126132  0     1  0  0  0  0  0999 V2000
    6.0380    2.4961    0.0000 O   0  0  0  0  0  0  0  0  0  0  0  0
    7.7331   -1.6941    0.0000 O   0  0  0  0  0  0  0  0  0  0  0  0
   10.4084    6.0580    0.0000 O   0  0  0  0  0  0  0  0  0  0  0  0
   10.1773   -1.0024    0.0000 O   0  0  0  0  0  0  0  0  0  0  0  0
    9.4869    7.5853    0.0000 O   0  0  0  0  0  0  0  0  0  0  0  0
    6.0010   -1.6941    0.0000 O   0  0  0  0  0  0  0  0  0  0  0  0
    7.7331   -3.6941    0.0000 O   0  0  0  0  0  0  0  0  0  0  0  0
    6.0010   -4.6941    0.0000 O   0  0  0  0  0  0  0  0  0  0  0  0
    4.2690   -3.6941    0.0000 O   0  0  0  0  0  0  0  0  0  0  0  0
    4.2690   -4.6941    0.0000 O   0  0  0  0  0  0  0  0  0  0  0  0
    6.0010   -6.6941    0.0000 O   0  0  0  0  0  0  0  0  0  0  0  0
    4.2690   -7.6941    0.0000 O   0  0  0  0  0  0  0  0  0  0  0  0
    2.5369   -6.6941    0.0000 O   0  0  0  0  0  0  0  0  0  0  0  0
    2.5369   -3.6941    0.0000 O   0  0  0  0  0  0  0  0  0  0  0  0
    8.6342    3.0061    0.0000 C   0  0  2  0  0  0  0  0  0  0  0  0
    7.7701    2.5027    0.0000 C   0  0  1  0  0  0  0  0  0  0  0  0
    7.7580    1.4612    0.0000 C   0  0  2  0  0  0  0  0  0  0  0  0
    8.6303    4.0061    0.0000 C   0  0  1  0  0  0  0  0  0  0  0  0
    8.6581    0.9369    0.0000 C   0  0  1  0  0  0  0  0  0  0  0  0
    9.5461    2.5027    0.0000 C   0  0  0  0  0  0  0  0  0  0  0  0
    7.7624    4.5027    0.0000 C   0  0  0  0  0  0  0  0  0  0  0  0
    9.5581    1.4612    0.0000 C   0  0  0  0  0  0  0  0  0  0  0  0
    8.6706   -0.1480    0.0000 C   0  0  1  0  0  0  0  0  0  0  0  0
    7.7423    5.5442    0.0000 C   0  0  1  0  0  0  0  0  0  0  0  0
    8.6383    6.0754    0.0000 C   0  0  1  0  0  0  0  0  0  0  0  0
    6.9021    2.9994    0.0000 C   0  0  1  0  0  0  0  0  0  0  0  0
    9.5383    4.5164    0.0000 C   0  0  0  0  0  0  0  0  0  0  0  0
    6.8081    0.9369    0.0000 C   0  0  0  0  0  0  0  0  0  0  0  0
    9.5424    5.5580    0.0000 C   0  0  2  0  0  0  0  0  0  0  0  0
    9.6183    3.1835    0.0000 C   0  0  0  0  0  0  0  0  0  0  0  0
    7.7331   -0.6941    0.0000 C   0  0  2  0  0  0  0  0  0  0  0  0
    6.8983    3.9994    0.0000 C   0  0  0  0  0  0  0  0  0  0  0  0
    6.8939    1.9645    0.0000 C   0  0  0  0  0  0  0  0  0  0  0  0
    6.7956   -0.1480    0.0000 C   0  0  0  0  0  0  0  0  0  0  0  0
    9.6158    3.8362    0.0000 C   0  0  0  0  0  0  0  0  0  0  0  0
    6.7884    6.0611    0.0000 C   0  0  0  0  0  0  0  0  0  0  0  0
    8.6424    7.1604    0.0000 C   0  0  0  0  0  0  0  0  0  0  0  0
    6.7674    7.1459    0.0000 C   0  0  0  0  0  0  0  0  0  0  0  0
    7.7007    7.6992    0.0000 C   0  0  0  0  0  0  0  0  0  0  0  0
    9.1773   -1.0102    0.0000 C   0  0  0  0  0  0  0  0  0  0  0  0
    9.6706   -0.1403    0.0000 C   0  0  0  0  0  0  0  0  0  0  0  0
    9.4985    6.5854    0.0000 C   0  0  0  0  0  0  0  0  0  0  0  0
    6.2542    8.0041    0.0000 C   0  0  0  0  0  0  0  0  0  0  0  0
    5.7676    7.1305    0.0000 C   0  0  0  0  0  0  0  0  0  0  0  0
    6.8671   -2.1941    0.0000 C   0  0  2  0  0  0  0  0  0  0  0  0
    6.8671   -3.1941    0.0000 C   0  0  1  0  0  0  0  0  0  0  0  0
    6.0010   -3.6941    0.0000 C   0  0  2  0  0  0  0  0  0  0  0  0
    5.1350   -2.1941    0.0000 C   0  0  1  0  0  0  0  0  0  0  0  0
    5.1350   -3.1941    0.0000 C   0  0  2  0  0  0  0  0  0  0  0  0
    4.2690   -1.6941    0.0000 C   0  0  0  0  0  0  0  0  0  0  0  0
    5.1350   -5.1941    0.0000 C   0  0  2  0  0  0  0  0  0  0  0  0
    5.1350   -6.1941    0.0000 C   0  0  1  0  0  0  0  0  0  0  0  0
    4.2690   -6.6941    0.0000 C   0  0  2  0  0  0  0  0  0  0  0  0
    3.4030   -5.1941    0.0000 C   0  0  1  0  0  0  0  0  0  0  0  0
    3.4030   -6.1941    0.0000 C   0  0  1  0  0  0  0  0  0  0  0  0
    2.5369   -4.6941    0.0000 C   0  0  0  0  0  0  0  0  0  0  0  0
    8.5045    2.0749    0.0000 H   0  0  0  0  0  0  0  0  0  0  0  0
    9.3974    0.5176    0.0000 H   0  0  0  0  0  0  0  0  0  0  0  0
   10.1581    2.4037    0.0000 H   0  0  0  0  0  0  0  0  0  0  0  0
    9.7484    3.0888    0.0000 H   0  0  0  0  0  0  0  0  0  0  0  0
    9.7739    0.8800    0.0000 H   0  0  0  0  0  0  0  0  0  0  0  0
   10.1677    1.5743    0.0000 H   0  0  0  0  0  0  0  0  0  0  0  0
    7.0162    5.1023    0.0000 H   0  0  0  0  0  0  0  0  0  0  0  0
    6.9045    2.3794    0.0000 H   0  0  0  0  0  0  0  0  0  0  0  0
    9.7451    3.9319    0.0000 H   0  0  0  0  0  0  0  0  0  0  0  0
   10.1496    4.6202    0.0000 H   0  0  0  0  0  0  0  0  0  0  0  0
    6.6058    1.5230    0.0000 H   0  0  0  0  0  0  0  0  0  0  0  0
    6.1961    0.8379    0.0000 H   0  0  0  0  0  0  0  0  0  0  0  0
   10.0787    5.2470    0.0000 H   0  0  0  0  0  0  0  0  0  0  0  0
    9.7283    2.5734    0.0000 H   0  0  0  0  0  0  0  0  0  0  0  0
   10.2284    3.2936    0.0000 H   0  0  0  0  0  0  0  0  0  0  0  0
    9.5083    3.7937    0.0000 H   0  0  0  0  0  0  0  0  0  0  0  0
    8.2706   -1.0031    0.0000 H   0  0  0  0  0  0  0  0  0  0  0  0
    6.3601    4.3073    0.0000 H   0  0  0  0  0  0  0  0  0  0  0  0
    7.2060    2.5003    0.0000 H   0  0  0  0  0  0  0  0  0  0  0  0
    6.3582    2.2766    0.0000 H   0  0  0  0  0  0  0  0  0  0  0  0
    6.5818    1.4288    0.0000 H   0  0  0  0  0  0  0  0  0  0  0  0
    6.1860   -0.0349    0.0000 H   0  0  0  0  0  0  0  0  0  0  0  0
    6.5798   -0.7293    0.0000 H   0  0  0  0  0  0  0  0  0  0  0  0
    9.5105    3.2252    0.0000 H   0  0  0  0  0  0  0  0  0  0  0  0
   10.2268    3.7309    0.0000 H   0  0  0  0  0  0  0  0  0  0  0  0
    9.7211    4.4472    0.0000 H   0  0  0  0  0  0  0  0  0  0  0  0
    6.1756    6.1554    0.0000 H   0  0  0  0  0  0  0  0  0  0  0  0
    6.5906    5.4735    0.0000 H   0  0  0  0  0  0  0  0  0  0  0  0
    9.2529    7.0519    0.0000 H   0  0  0  0  0  0  0  0  0  0  0  0
    8.8538    7.7433    0.0000 H   0  0  0  0  0  0  0  0  0  0  0  0
    8.0962    8.1767    0.0000 H   0  0  0  0  0  0  0  0  0  0  0  0
    7.2980    8.1706    0.0000 H   0  0  0  0  0  0  0  0  0  0  0  0
    8.5963   -1.2267    0.0000 H   0  0  0  0  0  0  0  0  0  0  0  0
    9.2896   -1.6199    0.0000 H   0  0  0  0  0  0  0  0  0  0  0  0
    9.6754   -0.7603    0.0000 H   0  0  0  0  0  0  0  0  0  0  0  0
   10.2906   -0.1355    0.0000 H   0  0  0  0  0  0  0  0  0  0  0  0
    9.6658    0.4797    0.0000 H   0  0  0  0  0  0  0  0  0  0  0  0
    9.7172    6.0052    0.0000 H   0  0  0  0  0  0  0  0  0  0  0  0
   10.1078    6.7001    0.0000 H   0  0  0  0  0  0  0  0  0  0  0  0
    5.4999    2.8040    0.0000 H   0  0  0  0  0  0  0  0  0  0  0  0
   10.9453    5.7480    0.0000 H   0  0  0  0  0  0  0  0  0  0  0  0
    6.7862    8.3224    0.0000 H   0  0  0  0  0  0  0  0  0  0  0  0
    5.9359    8.5362    0.0000 H   0  0  0  0  0  0  0  0  0  0  0  0
    5.7220    7.6859    0.0000 H   0  0  0  0  0  0  0  0  0  0  0  0
    5.7580    7.7504    0.0000 H   0  0  0  0  0  0  0  0  0  0  0  0
    5.1476    7.1209    0.0000 H   0  0  0  0  0  0  0  0  0  0  0  0
    5.7771    6.5106    0.0000 H   0  0  0  0  0  0  0  0  0  0  0  0
    7.4040   -2.5041    0.0000 H   0  0  0  0  0  0  0  0  0  0  0  0
   10.4914   -1.5370    0.0000 H   0  0  0  0  0  0  0  0  0  0  0  0
   10.0202    7.9015    0.0000 H   0  0  0  0  0  0  0  0  0  0  0  0
    6.8671   -3.8141    0.0000 H   0  0  0  0  0  0  0  0  0  0  0  0
    5.4641   -4.0041    0.0000 H   0  0  0  0  0  0  0  0  0  0  0  0
    5.1350   -1.5741    0.0000 H   0  0  0  0  0  0  0  0  0  0  0  0
    4.5981   -2.8841    0.0000 H   0  0  0  0  0  0  0  0  0  0  0  0
    7.7331   -4.3141    0.0000 H   0  0  0  0  0  0  0  0  0  0  0  0
    4.5790   -1.1572    0.0000 H   0  0  0  0  0  0  0  0  0  0  0  0
    3.7320   -1.3841    0.0000 H   0  0  0  0  0  0  0  0  0  0  0  0
    3.9590   -2.2311    0.0000 H   0  0  0  0  0  0  0  0  0  0  0  0
    3.7320   -3.3841    0.0000 H   0  0  0  0  0  0  0  0  0  0  0  0
    5.1350   -4.5741    0.0000 H   0  0  0  0  0  0  0  0  0  0  0  0
    5.1350   -6.8141    0.0000 H   0  0  0  0  0  0  0  0  0  0  0  0
    3.7320   -7.0041    0.0000 H   0  0  0  0  0  0  0  0  0  0  0  0
    3.4030   -4.5741    0.0000 H   0  0  0  0  0  0  0  0  0  0  0  0
    3.4030   -6.8141    0.0000 H   0  0  0  0  0  0  0  0  0  0  0  0
    6.0010   -7.3141    0.0000 H   0  0  0  0  0  0  0  0  0  0  0  0
    1.9264   -4.5865    0.0000 H   0  0  0  0  0  0  0  0  0  0  0  0
    2.3249   -5.2767    0.0000 H   0  0  0  0  0  0  0  0  0  0  0  0
    3.7320   -8.0041    0.0000 H   0  0  0  0  0  0  0  0  0  0  0  0
    2.0000   -6.3841    0.0000 H   0  0  0  0  0  0  0  0  0  0  0  0
    2.0000   -3.3841    0.0000 H   0  0  0  0  0  0  0  0  0  0  0  0
 26  1  1  6  0  0  0
  1 96  1  0  0  0  0
 31  2  1  1  0  0  0
 45  2  1  1  0  0  0
 29  3  1  1  0  0  0
  3 97  1  0  0  0  0
  4 40  1  0  0  0  0
  4105  1  0  0  0  0
  5 42  1  0  0  0  0
  5106  1  0  0  0  0
  6 45  1  0  0  0  0
  6 48  1  0  0  0  0
 46  7  1  6  0  0  0
  7111  1  0  0  0  0
 47  8  1  1  0  0  0
 51  8  1  1  0  0  0
 49  9  1  1  0  0  0
  9115  1  0  0  0  0
 10 51  1  0  0  0  0
 10 54  1  0  0  0  0
 52 11  1  6  0  0  0
 11121  1  0  0  0  0
 53 12  1  1  0  0  0
 12124  1  0  0  0  0
 55 13  1  6  0  0  0
 13125  1  0  0  0  0
 14 56  1  0  0  0  0
 14126  1  0  0  0  0
 15 16  1  0  0  0  0
 15 18  1  0  0  0  0
 15 20  1  0  0  0  0
 15 30  1  1  0  0  0
 16 17  1  0  0  0  0
 16 26  1  0  0  0  0
 16 57  1  6  0  0  0
 17 19  1  0  0  0  0
 17 28  1  0  0  0  0
 17 33  1  1  0  0  0
 18 21  1  0  0  0  0
 18 27  1  0  0  0  0
 18 35  1  6  0  0  0
 19 22  1  0  0  0  0
 19 23  1  0  0  0  0
 19 58  1  6  0  0  0
 20 22  1  0  0  0  0
 20 59  1  0  0  0  0
 20 60  1  0  0  0  0
 21 24  1  0  0  0  0
 21 32  2  0  0  0  0
 22 61  1  0  0  0  0
 22 62  1  0  0  0  0
 23 31  1  0  0  0  0
 23 40  1  0  0  0  0
 23 41  1  1  0  0  0
 24 25  1  0  0  0  0
 24 36  1  0  0  0  0
 24 63  1  1  0  0  0
 25 29  1  0  0  0  0
 25 37  1  0  0  0  0
 25 42  1  1  0  0  0
 26 32  1  0  0  0  0
 26 64  1  0  0  0  0
 27 29  1  0  0  0  0
 27 65  1  0  0  0  0
 27 66  1  0  0  0  0
 28 34  1  0  0  0  0
 28 67  1  0  0  0  0
 28 68  1  0  0  0  0
 29 69  1  0  0  0  0
 30 70  1  0  0  0  0
 30 71  1  0  0  0  0
 30 72  1  0  0  0  0
 31 34  1  0  0  0  0
 31 73  1  0  0  0  0
 32 74  1  0  0  0  0
 33 75  1  0  0  0  0
 33 76  1  0  0  0  0
 33 77  1  0  0  0  0
 34 78  1  0  0  0  0
 34 79  1  0  0  0  0
 35 80  1  0  0  0  0
 35 81  1  0  0  0  0
 35 82  1  0  0  0  0
 36 38  1  0  0  0  0
 36 83  1  0  0  0  0
 36 84  1  0  0  0  0
 37 39  1  0  0  0  0
 37 85  1  0  0  0  0
 37 86  1  0  0  0  0
 38 39  1  0  0  0  0
 38 43  1  0  0  0  0
 38 44  1  0  0  0  0
 39 87  1  0  0  0  0
 39 88  1  0  0  0  0
 40 89  1  0  0  0  0
 40 90  1  0  0  0  0
 41 91  1  0  0  0  0
 41 92  1  0  0  0  0
 41 93  1  0  0  0  0
 42 94  1  0  0  0  0
 42 95  1  0  0  0  0
 43 98  1  0  0  0  0
 43 99  1  0  0  0  0
 43100  1  0  0  0  0
 44101  1  0  0  0  0
 44102  1  0  0  0  0
 44103  1  0  0  0  0
 45 46  1  0  0  0  0
 45104  1  0  0  0  0
 46 47  1  0  0  0  0
 46107  1  0  0  0  0
 47 49  1  0  0  0  0
 47108  1  0  0  0  0
 48 49  1  0  0  0  0
 48 50  1  1  0  0  0
 48109  1  0  0  0  0
 49110  1  0  0  0  0
 50112  1  0  0  0  0
 50113  1  0  0  0  0
 50114  1  0  0  0  0
 51 52  1  0  0  0  0
 51116  1  0  0  0  0
 52 53  1  0  0  0  0
 52117  1  0  0  0  0
 53 55  1  0  0  0  0
 53118  1  0  0  0  0
 54 55  1  0  0  0  0
 54 56  1  1  0  0  0
 54119  1  0  0  0  0
 55120  1  0  0  0  0
 56122  1  0  0  0  0
 56123  1  0  0  0  0
M  END
> <PUBCHEM_COMPOUND_CID>
101690817

> <PUBCHEM_COMPOUND_CANONICALIZED>
1

> <PUBCHEM_CACTVS_COMPLEXITY>
1480

> <PUBCHEM_CACTVS_HBOND_ACCEPTOR>
14

> <PUBCHEM_CACTVS_HBOND_DONOR>
10

> <PUBCHEM_CACTVS_ROTATABLE_BOND>
7

> <PUBCHEM_CACTVS_SUBSKEYS>
AAADcfB8PAAAAAAAAAAAAAAAAAAAAAAAAAA0aMGCAAAAAADAAAAAGgAACAAADxSwgAMCCAAABgCAAiBCAAAAAAAgAAAACAAAAAgRFAIAAQAiUAAFgAAPEAPA4PwPgAAAAAAAAADAAAYAADAAAAAAAAAAAA==

> <PUBCHEM_IUPAC_OPENEYE_NAME>
(2S,3R,4S,5S,6R)-2-[(2R,3R,4S,5S,6R)-2-[[(3S,4R,4aR,6aR,6bS,8S,8aS,12aS,14R,14aR,14bS)-8,14-dihydroxy-4,8a-bis(hydroxymethyl)-4,6a,6b,11,11,14b-hexamethyl-1,2,3,4a,5,6,7,8,9,10,12,12a,14,14a-tetradecahydropicen-3-yl]oxy]-3,5-dihydroxy-6-methyl-tetrahydropyran-4-yl]oxy-6-(hydroxymethyl)tetrahydropyran-3,4,5-triol

> <PUBCHEM_IUPAC_CAS_NAME>
(2S,3R,4S,5S,6R)-2-[[(2R,3R,4S,5S,6R)-2-[[(3S,4R,4aR,6aR,6bS,8S,8aS,12aS,14R,14aR,14bS)-8,14-dihydroxy-4,8a-bis(hydroxymethyl)-4,6a,6b,11,11,14b-hexamethyl-1,2,3,4a,5,6,7,8,9,10,12,12a,14,14a-tetradecahydropicen-3-yl]oxy]-3,5-dihydroxy-6-methyl-4-oxanyl]oxy]-6-(hydroxymethyl)oxane-3,4,5-triol

> <PUBCHEM_IUPAC_NAME_MARKUP>
(2<I>S</I>,3<I>R</I>,4<I>S</I>,5<I>S</I>,6<I>R</I>)-2-[(2<I>R</I>,3<I>R</I>,4<I>S</I>,5<I>S</I>,6<I>R</I>)-2-[[(3<I>S</I>,4<I>R</I>,4<I>a</I><I>R</I>,6<I>a</I><I>R</I>,6<I>b</I><I>S</I>,8<I>S</I>,8<I>a</I><I>S</I>,12<I>a</I><I>S</I>,14<I>R</I>,14<I>a</I><I>R</I>,14<I>b</I><I>S</I>)-8,14-dihydroxy-4,8<I>a</I>-bis(hydroxymethyl)-4,6<I>a</I>,6<I>b</I>,11,11,14<I>b</I>-hexamethyl-1,2,3,4<I>a</I>,5,6,7,8,9,10,12,12<I>a</I>,14,14<I>a</I>-tetradecahydropicen-3-yl]oxy]-3,5-dihydroxy-6-methyloxan-4-yl]oxy-6-(hydroxymethyl)oxane-3,4,5-triol

> <PUBCHEM_IUPAC_NAME>
(2S,3R,4S,5S,6R)-2-[(2R,3R,4S,5S,6R)-2-[[(3S,4R,4aR,6aR,6bS,8S,8aS,12aS,14R,14aR,14bS)-8,14-dihydroxy-4,8a-bis(hydroxymethyl)-4,6a,6b,11,11,14b-hexamethyl-1,2,3,4a,5,6,7,8,9,10,12,12a,14,14a-tetradecahydropicen-3-yl]oxy]-3,5-dihydroxy-6-methyloxan-4-yl]oxy-6-(hydroxymethyl)oxane-3,4,5-triol

> <PUBCHEM_IUPAC_SYSTEMATIC_NAME>
(2S,3R,4S,5S,6R)-2-[(2R,3R,4S,5S,6R)-2-[[(3S,4R,4aR,6aR,6bS,8S,8aS,12aS,14R,14aR,14bS)-4,8a-bis(hydroxymethyl)-4,6a,6b,11,11,14b-hexamethyl-8,14-bis(oxidanyl)-1,2,3,4a,5,6,7,8,9,10,12,12a,14,14a-tetradecahydropicen-3-yl]oxy]-6-methyl-3,5-bis(oxidanyl)oxan-4-yl]oxy-6-(hydroxymethyl)oxane-3,4,5-triol

> <PUBCHEM_IUPAC_TRADITIONAL_NAME>
(2S,3R,4S,5S,6R)-2-[(2R,3R,4S,5S,6R)-2-[[(3S,4R,4aR,6aR,6bS,8S,8aS,12aS,14R,14aR,14bS)-8,14-dihydroxy-4,6a,6b,11,11,14b-hexamethyl-4,8a-dimethylol-1,2,3,4a,5,6,7,8,9,10,12,12a,14,14a-tetradecahydropicen-3-yl]oxy]-3,5-dihydroxy-6-methyl-tetrahydropyran-4-yl]oxy-6-methylol-tetrahydropyran-3,4,5-triol

> <PUBCHEM_IUPAC_INCHI>
InChI=1S/C42H70O14/c1-20-28(48)33(56-35-31(51)30(50)29(49)24(17-43)54-35)32(52)36(53-20)55-27-9-10-38(4)25(39(27,5)18-44)8-11-40(6)34(38)23(46)14-21-22-15-37(2,3)12-13-42(22,19-45)26(47)16-41(21,40)7/h14,20,22-36,43-52H,8-13,15-19H2,1-7H3/t20-,22+,23-,24-,25-,26+,27+,28+,29-,30+,31-,32-,33+,34-,35+,36+,38+,39+,40-,41-,42-/m1/s1

> <PUBCHEM_IUPAC_INCHIKEY>
WBZUTWKOBMHGCT-QQXQGMKQSA-N

> <PUBCHEM_XLOGP3_AA>
1.9

> <PUBCHEM_EXACT_MASS>
798.476557

> <PUBCHEM_MOLECULAR_FORMULA>
C42H70O14

> <PUBCHEM_MOLECULAR_WEIGHT>
799

> <PUBCHEM_OPENEYE_CAN_SMILES>
CC1C(C(C(C(O1)OC2CCC3(C(C2(C)CO)CCC4(C3C(C=C5C4(CC(C6(C5CC(CC6)(C)C)CO)O)C)O)C)C)O)OC7C(C(C(C(O7)CO)O)O)O)O

> <PUBCHEM_OPENEYE_ISO_SMILES>
C[C@@H]1[C@@H]([C@@H]([C@H]([C@@H](O1)O[C@H]2CC[C@]3([C@H]([C@]2(C)CO)CC[C@@]4([C@@H]3[C@@H](C=C5[C@]4(C[C@@H]([C@@]6([C@H]5CC(CC6)(C)C)CO)O)C)O)C)C)O)O[C@H]7[C@@H]([C@H]([C@@H]([C@H](O7)CO)O)O)O)O

> <PUBCHEM_CACTVS_TPSA>
239

> <PUBCHEM_MONOISOTOPIC_WEIGHT>
798.476557

> <PUBCHEM_TOTAL_CHARGE>
0

> <PUBCHEM_HEAVY_ATOM_COUNT>
56

> <PUBCHEM_ATOM_DEF_STEREO_COUNT>
21

> <PUBCHEM_ATOM_UDEF_STEREO_COUNT>
0

> <PUBCHEM_BOND_DEF_STEREO_COUNT>
0

> <PUBCHEM_BOND_UDEF_STEREO_COUNT>
0

> <PUBCHEM_ISOTOPIC_ATOM_COUNT>
0

> <PUBCHEM_COMPONENT_COUNT>
1

> <PUBCHEM_CACTVS_TAUTO_COUNT>
-1

> <PUBCHEM_COORDINATE_TYPE>
1
5
255

> <PUBCHEM_BONDANNOTATIONS>
26  1  6
52  11  6
53  12  5
55  13  6
15  30  5
16  57  6
17  33  5
18  35  6
19  58  6
31  2  5
45  2  5
23  41  5
24  63  5
25  42  5
29  3  5
48  50  5
54  56  5
46  7  6
47  8  5
51  8  5
49  9  5

$$$$
