101933290
  -OEChem-09172005132D

131135  0     1  0  0  0  0  0999 V2000
   15.8563   -3.2456    0.0000 O   0  0  0  0  0  0  0  0  0  0  0  0
   14.9845   -1.7490    0.0000 O   0  0  0  0  0  0  0  0  0  0  0  0
   19.3864   -1.2214    0.0000 C   0  0  1  0  0  0  0  0  0  0  0  0
   18.5204   -1.7214    0.0000 C   0  0  2  0  0  0  0  0  0  0  0  0
   18.5201   -0.7210    0.0000 C   0  0  0  0  0  0  0  0  0  0  0  0
   20.2525   -1.7214    0.0000 C   0  0  2  0  0  0  0  0  0  0  0  0
   18.5204   -2.7214    0.0000 C   0  0  1  0  0  0  0  0  0  0  0  0
   21.1625   -1.2146    0.0000 C   0  0  1  0  0  0  0  0  0  0  0  0
   19.3704   -0.1799    0.0000 C   0  0  0  0  0  0  0  0  0  0  0  0
   21.1705   -0.1730    0.0000 C   0  0  2  0  0  0  0  0  0  0  0  0
   17.6265   -1.1868    0.0000 C   0  0  0  0  0  0  0  0  0  0  0  0
   20.2525   -2.7214    0.0000 C   0  0  0  0  0  0  0  0  0  0  0  0
   19.3864   -3.2214    0.0000 C   0  0  0  0  0  0  0  0  0  0  0  0
   20.2684    0.3478    0.0000 C   0  0  0  0  0  0  0  0  0  0  0  0
   17.6265   -3.2561    0.0000 C   0  0  0  0  0  0  0  0  0  0  0  0
   22.1585    0.1368    0.0000 C   0  0  2  0  0  0  0  0  0  0  0  0
   22.1456   -1.5396    0.0000 C   0  0  0  0  0  0  0  0  0  0  0  0
   16.7204   -1.7006    0.0000 C   0  0  0  0  0  0  0  0  0  0  0  0
   16.7204   -2.7423    0.0000 C   0  0  2  0  0  0  0  0  0  0  0  0
   22.7599   -0.7061    0.0000 C   0  0  0  0  0  0  0  0  0  0  0  0
   21.1547   -2.2146    0.0000 C   0  0  0  0  0  0  0  0  0  0  0  0
   21.1782    0.8270    0.0000 C   0  0  0  0  0  0  0  0  0  0  0  0
   22.4765    1.0849    0.0000 C   0  0  1  0  0  0  0  0  0  0  0  0
   17.1365   -4.1279    0.0000 C   0  0  0  0  0  0  0  0  0  0  0  0
   18.1364   -4.1163    0.0000 C   0  0  0  0  0  0  0  0  0  0  0  0
   23.4566    1.2836    0.0000 C   0  0  0  0  0  0  0  0  0  0  0  0
   21.8144    1.8343    0.0000 C   0  0  0  0  0  0  0  0  0  0  0  0
   14.9884   -2.7489    0.0000 C   0  0  0  0  0  0  0  0  0  0  0  0
   23.7745    2.2317    0.0000 C   0  0  0  0  0  0  0  0  0  0  0  0
   14.1243   -3.2523    0.0000 C   0  0  0  0  0  0  0  0  0  0  0  0
   24.7546    2.4303    0.0000 C   0  0  0  0  0  0  0  0  0  0  0  0
   13.2563   -2.7556    0.0000 C   0  0  0  0  0  0  0  0  0  0  0  0
   25.0726    3.3784    0.0000 C   0  0  0  0  0  0  0  0  0  0  0  0
   25.4167    1.6809    0.0000 C   0  0  0  0  0  0  0  0  0  0  0  0
   12.3922   -3.2590    0.0000 C   0  0  0  0  0  0  0  0  0  0  0  0
   26.0527    3.5771    0.0000 C   0  0  0  0  0  0  0  0  0  0  0  0
   24.4105    4.1279    0.0000 C   0  0  0  0  0  0  0  0  0  0  0  0
   11.5243   -2.7623    0.0000 C   0  0  0  0  0  0  0  0  0  0  0  0
   10.6602   -3.2656    0.0000 C   0  0  0  0  0  0  0  0  0  0  0  0
    9.7922   -2.7690    0.0000 C   0  0  0  0  0  0  0  0  0  0  0  0
    8.9282   -3.2723    0.0000 C   0  0  0  0  0  0  0  0  0  0  0  0
    8.0602   -2.7756    0.0000 C   0  0  0  0  0  0  0  0  0  0  0  0
    7.1961   -3.2790    0.0000 C   0  0  0  0  0  0  0  0  0  0  0  0
    6.3282   -2.7823    0.0000 C   0  0  0  0  0  0  0  0  0  0  0  0
    5.4641   -3.2857    0.0000 C   0  0  0  0  0  0  0  0  0  0  0  0
    4.5961   -2.7890    0.0000 C   0  0  0  0  0  0  0  0  0  0  0  0
    3.7320   -3.2923    0.0000 C   0  0  0  0  0  0  0  0  0  0  0  0
    2.8641   -2.7957    0.0000 C   0  0  0  0  0  0  0  0  0  0  0  0
    2.0000   -3.2990    0.0000 C   0  0  0  0  0  0  0  0  0  0  0  0
   18.7322   -0.1384    0.0000 H   0  0  0  0  0  0  0  0  0  0  0  0
   17.9096   -0.6134    0.0000 H   0  0  0  0  0  0  0  0  0  0  0  0
   20.9853   -2.1521    0.0000 H   0  0  0  0  0  0  0  0  0  0  0  0
   18.5270   -3.5714    0.0000 H   0  0  0  0  0  0  0  0  0  0  0  0
   19.1523    0.4005    0.0000 H   0  0  0  0  0  0  0  0  0  0  0  0
   18.7612   -0.2954    0.0000 H   0  0  0  0  0  0  0  0  0  0  0  0
   18.0311   -0.7170    0.0000 H   0  0  0  0  0  0  0  0  0  0  0  0
   17.2328   -0.7078    0.0000 H   0  0  0  0  0  0  0  0  0  0  0  0
   20.4645   -3.3041    0.0000 H   0  0  0  0  0  0  0  0  0  0  0  0
   20.8630   -2.6138    0.0000 H   0  0  0  0  0  0  0  0  0  0  0  0
   18.9879   -3.6964    0.0000 H   0  0  0  0  0  0  0  0  0  0  0  0
   19.7850   -3.6964    0.0000 H   0  0  0  0  0  0  0  0  0  0  0  0
   20.6657    0.8238    0.0000 H   0  0  0  0  0  0  0  0  0  0  0  0
   19.8674    0.8207    0.0000 H   0  0  0  0  0  0  0  0  0  0  0  0
   22.9992    0.2622    0.0000 H   0  0  0  0  0  0  0  0  0  0  0  0
   21.8902   -2.1046    0.0000 H   0  0  0  0  0  0  0  0  0  0  0  0
   22.6806   -1.8530    0.0000 H   0  0  0  0  0  0  0  0  0  0  0  0
   16.5113   -1.1170    0.0000 H   0  0  0  0  0  0  0  0  0  0  0  0
   16.1095   -1.8067    0.0000 H   0  0  0  0  0  0  0  0  0  0  0  0
   16.7240   -3.3623    0.0000 H   0  0  0  0  0  0  0  0  0  0  0  0
   23.2176   -1.1244    0.0000 H   0  0  0  0  0  0  0  0  0  0  0  0
   23.2240   -0.2949    0.0000 H   0  0  0  0  0  0  0  0  0  0  0  0
   20.5348   -2.2098    0.0000 H   0  0  0  0  0  0  0  0  0  0  0  0
   21.1500   -2.8346    0.0000 H   0  0  0  0  0  0  0  0  0  0  0  0
   21.7747   -2.2194    0.0000 H   0  0  0  0  0  0  0  0  0  0  0  0
   21.7982    0.8222    0.0000 H   0  0  0  0  0  0  0  0  0  0  0  0
   21.1830    1.4470    0.0000 H   0  0  0  0  0  0  0  0  0  0  0  0
   20.5582    0.8317    0.0000 H   0  0  0  0  0  0  0  0  0  0  0  0
   21.8689    0.9617    0.0000 H   0  0  0  0  0  0  0  0  0  0  0  0
   16.5960   -3.8241    0.0000 H   0  0  0  0  0  0  0  0  0  0  0  0
   16.8327   -4.6684    0.0000 H   0  0  0  0  0  0  0  0  0  0  0  0
   17.6770   -4.4316    0.0000 H   0  0  0  0  0  0  0  0  0  0  0  0
   17.6031   -4.4325    0.0000 H   0  0  0  0  0  0  0  0  0  0  0  0
   18.4526   -4.6496    0.0000 H   0  0  0  0  0  0  0  0  0  0  0  0
   18.6698   -3.8001    0.0000 H   0  0  0  0  0  0  0  0  0  0  0  0
   23.4723    0.6638    0.0000 H   0  0  0  0  0  0  0  0  0  0  0  0
   24.0697    1.1915    0.0000 H   0  0  0  0  0  0  0  0  0  0  0  0
   22.2791    2.2448    0.0000 H   0  0  0  0  0  0  0  0  0  0  0  0
   21.4039    2.2990    0.0000 H   0  0  0  0  0  0  0  0  0  0  0  0
   21.3498    1.4238    0.0000 H   0  0  0  0  0  0  0  0  0  0  0  0
   23.7588    2.8515    0.0000 H   0  0  0  0  0  0  0  0  0  0  0  0
   23.1614    2.3238    0.0000 H   0  0  0  0  0  0  0  0  0  0  0  0
   13.7276   -3.7288    0.0000 H   0  0  0  0  0  0  0  0  0  0  0  0
   14.5246   -3.7257    0.0000 H   0  0  0  0  0  0  0  0  0  0  0  0
   13.6530   -2.2791    0.0000 H   0  0  0  0  0  0  0  0  0  0  0  0
   12.8560   -2.2822    0.0000 H   0  0  0  0  0  0  0  0  0  0  0  0
   24.4649    3.2553    0.0000 H   0  0  0  0  0  0  0  0  0  0  0  0
   25.2195    1.0931    0.0000 H   0  0  0  0  0  0  0  0  0  0  0  0
   26.0243    1.8041    0.0000 H   0  0  0  0  0  0  0  0  0  0  0  0
   11.9955   -3.7354    0.0000 H   0  0  0  0  0  0  0  0  0  0  0  0
   12.7926   -3.7324    0.0000 H   0  0  0  0  0  0  0  0  0  0  0  0
   26.1758    2.9695    0.0000 H   0  0  0  0  0  0  0  0  0  0  0  0
   26.6603    3.7003    0.0000 H   0  0  0  0  0  0  0  0  0  0  0  0
   25.9295    4.1848    0.0000 H   0  0  0  0  0  0  0  0  0  0  0  0
   24.8751    4.5384    0.0000 H   0  0  0  0  0  0  0  0  0  0  0  0
   24.0000    4.5925    0.0000 H   0  0  0  0  0  0  0  0  0  0  0  0
   23.9459    3.7174    0.0000 H   0  0  0  0  0  0  0  0  0  0  0  0
   11.9210   -2.2858    0.0000 H   0  0  0  0  0  0  0  0  0  0  0  0
   11.1239   -2.2889    0.0000 H   0  0  0  0  0  0  0  0  0  0  0  0
   10.2635   -3.7421    0.0000 H   0  0  0  0  0  0  0  0  0  0  0  0
   11.0605   -3.7390    0.0000 H   0  0  0  0  0  0  0  0  0  0  0  0
   10.1889   -2.2925    0.0000 H   0  0  0  0  0  0  0  0  0  0  0  0
    9.3919   -2.2956    0.0000 H   0  0  0  0  0  0  0  0  0  0  0  0
    8.5315   -3.7488    0.0000 H   0  0  0  0  0  0  0  0  0  0  0  0
    9.3285   -3.7457    0.0000 H   0  0  0  0  0  0  0  0  0  0  0  0
    8.4569   -2.2992    0.0000 H   0  0  0  0  0  0  0  0  0  0  0  0
    7.6598   -2.3022    0.0000 H   0  0  0  0  0  0  0  0  0  0  0  0
    6.7994   -3.7555    0.0000 H   0  0  0  0  0  0  0  0  0  0  0  0
    7.5965   -3.7524    0.0000 H   0  0  0  0  0  0  0  0  0  0  0  0
    6.7249   -2.3058    0.0000 H   0  0  0  0  0  0  0  0  0  0  0  0
    5.9278   -2.3089    0.0000 H   0  0  0  0  0  0  0  0  0  0  0  0
    5.0674   -3.7621    0.0000 H   0  0  0  0  0  0  0  0  0  0  0  0
    5.8644   -3.7591    0.0000 H   0  0  0  0  0  0  0  0  0  0  0  0
    4.9928   -2.3125    0.0000 H   0  0  0  0  0  0  0  0  0  0  0  0
    4.1958   -2.3156    0.0000 H   0  0  0  0  0  0  0  0  0  0  0  0
    3.3353   -3.7688    0.0000 H   0  0  0  0  0  0  0  0  0  0  0  0
    4.1324   -3.7657    0.0000 H   0  0  0  0  0  0  0  0  0  0  0  0
    3.2608   -2.3192    0.0000 H   0  0  0  0  0  0  0  0  0  0  0  0
    2.4637   -2.3223    0.0000 H   0  0  0  0  0  0  0  0  0  0  0  0
    1.6879   -2.7633    0.0000 H   0  0  0  0  0  0  0  0  0  0  0  0
    1.4643   -3.6111    0.0000 H   0  0  0  0  0  0  0  0  0  0  0  0
    2.3121   -3.8348    0.0000 H   0  0  0  0  0  0  0  0  0  0  0  0
 19  1  1  1  0  0  0
  1 28  1  0  0  0  0
  2 28  2  0  0  0  0
  3  4  1  0  0  0  0
  3  5  1  1  0  0  0
  3  6  1  0  0  0  0
  3  9  1  0  0  0  0
  4  5  1  1  0  0  0
  4  7  1  0  0  0  0
  4 11  1  0  0  0  0
  5 50  1  0  0  0  0
  5 51  1  0  0  0  0
  6  8  1  0  0  0  0
  6 12  1  0  0  0  0
  6 52  1  1  0  0  0
  7 13  1  0  0  0  0
  7 15  1  0  0  0  0
  7 53  1  6  0  0  0
  8 10  1  0  0  0  0
  8 17  1  0  0  0  0
  8 21  1  6  0  0  0
  9 14  1  0  0  0  0
  9 54  1  0  0  0  0
  9 55  1  0  0  0  0
 10 14  1  0  0  0  0
 10 16  1  0  0  0  0
 10 22  1  1  0  0  0
 11 18  1  0  0  0  0
 11 56  1  0  0  0  0
 11 57  1  0  0  0  0
 12 13  1  0  0  0  0
 12 58  1  0  0  0  0
 12 59  1  0  0  0  0
 13 60  1  0  0  0  0
 13 61  1  0  0  0  0
 14 62  1  0  0  0  0
 14 63  1  0  0  0  0
 15 19  1  0  0  0  0
 15 24  1  0  0  0  0
 15 25  1  0  0  0  0
 16 20  1  0  0  0  0
 16 23  1  0  0  0  0
 16 64  1  6  0  0  0
 17 20  1  0  0  0  0
 17 65  1  0  0  0  0
 17 66  1  0  0  0  0
 18 19  1  0  0  0  0
 18 67  1  0  0  0  0
 18 68  1  0  0  0  0
 19 69  1  0  0  0  0
 20 70  1  0  0  0  0
 20 71  1  0  0  0  0
 21 72  1  0  0  0  0
 21 73  1  0  0  0  0
 21 74  1  0  0  0  0
 22 75  1  0  0  0  0
 22 76  1  0  0  0  0
 22 77  1  0  0  0  0
 23 26  1  0  0  0  0
 23 27  1  6  0  0  0
 23 78  1  0  0  0  0
 24 79  1  0  0  0  0
 24 80  1  0  0  0  0
 24 81  1  0  0  0  0
 25 82  1  0  0  0  0
 25 83  1  0  0  0  0
 25 84  1  0  0  0  0
 26 29  1  0  0  0  0
 26 85  1  0  0  0  0
 26 86  1  0  0  0  0
 27 87  1  0  0  0  0
 27 88  1  0  0  0  0
 27 89  1  0  0  0  0
 28 30  1  0  0  0  0
 29 31  1  0  0  0  0
 29 90  1  0  0  0  0
 29 91  1  0  0  0  0
 30 32  1  0  0  0  0
 30 92  1  0  0  0  0
 30 93  1  0  0  0  0
 31 33  1  0  0  0  0
 31 34  2  0  0  0  0
 32 35  1  0  0  0  0
 32 94  1  0  0  0  0
 32 95  1  0  0  0  0
 33 36  1  0  0  0  0
 33 37  1  0  0  0  0
 33 96  1  0  0  0  0
 34 97  1  0  0  0  0
 34 98  1  0  0  0  0
 35 38  1  0  0  0  0
 35 99  1  0  0  0  0
 35100  1  0  0  0  0
 36101  1  0  0  0  0
 36102  1  0  0  0  0
 36103  1  0  0  0  0
 37104  1  0  0  0  0
 37105  1  0  0  0  0
 37106  1  0  0  0  0
 38 39  1  0  0  0  0
 38107  1  0  0  0  0
 38108  1  0  0  0  0
 39 40  1  0  0  0  0
 39109  1  0  0  0  0
 39110  1  0  0  0  0
 40 41  1  0  0  0  0
 40111  1  0  0  0  0
 40112  1  0  0  0  0
 41 42  1  0  0  0  0
 41113  1  0  0  0  0
 41114  1  0  0  0  0
 42 43  1  0  0  0  0
 42115  1  0  0  0  0
 42116  1  0  0  0  0
 43 44  1  0  0  0  0
 43117  1  0  0  0  0
 43118  1  0  0  0  0
 44 45  1  0  0  0  0
 44119  1  0  0  0  0
 44120  1  0  0  0  0
 45 46  1  0  0  0  0
 45121  1  0  0  0  0
 45122  1  0  0  0  0
 46 47  1  0  0  0  0
 46123  1  0  0  0  0
 46124  1  0  0  0  0
 47 48  1  0  0  0  0
 47125  1  0  0  0  0
 47126  1  0  0  0  0
 48 49  1  0  0  0  0
 48127  1  0  0  0  0
 48128  1  0  0  0  0
 49129  1  0  0  0  0
 49130  1  0  0  0  0
 49131  1  0  0  0  0
M  END
> <PUBCHEM_COMPOUND_CID>
101933290

> <PUBCHEM_COMPOUND_CANONICALIZED>
1

> <PUBCHEM_CACTVS_COMPLEXITY>
1100

> <PUBCHEM_CACTVS_HBOND_ACCEPTOR>
2

> <PUBCHEM_CACTVS_HBOND_DONOR>
0

> <PUBCHEM_CACTVS_ROTATABLE_BOND>
21

> <PUBCHEM_CACTVS_SUBSKEYS>
AAADcfB8MAAAAAAAAAAAAAAAGAAAAYAAAAAwYMAABgAAAGDAAAAAGgAAAAAADxSggAICCAAABACIAgDSCAAAAAAgAAAAAAEAAAgAABIAAQACAAAEgAAAAAGIyPCPgAAAAAAAAADAAAYAADAAAQAACAAAAA==

> <PUBCHEM_IUPAC_OPENEYE_NAME>
[(1S,3R,6S,8R,11S,12S,15R,16R)-15-[(1R)-1,5-dimethyl-4-methylene-hexyl]-7,7,12,16-tetramethyl-6-pentacyclo[9.7.0.01,3.03,8.012,16]octadecanyl] hexadecanoate

> <PUBCHEM_IUPAC_CAS_NAME>
hexadecanoic acid [(1S,3R,6S,8R,11S,12S,15R,16R)-7,7,12,16-tetramethyl-15-[(2R)-6-methyl-5-methyleneheptan-2-yl]-6-pentacyclo[9.7.0.01,3.03,8.012,16]octadecanyl] ester

> <PUBCHEM_IUPAC_NAME_MARKUP>
[(1<I>S</I>,3<I>R</I>,6<I>S</I>,8<I>R</I>,11<I>S</I>,12<I>S</I>,15<I>R</I>,16<I>R</I>)-7,7,12,16-tetramethyl-15-[(2<I>R</I>)-6-methyl-5-methylideneheptan-2-yl]-6-pentacyclo[9.7.0.0<SUP>1,3</SUP>.0<SUP>3,8</SUP>.0<SUP>12,16</SUP>]octadecanyl] hexadecanoate

> <PUBCHEM_IUPAC_NAME>
[(1S,3R,6S,8R,11S,12S,15R,16R)-7,7,12,16-tetramethyl-15-[(2R)-6-methyl-5-methylideneheptan-2-yl]-6-pentacyclo[9.7.0.01,3.03,8.012,16]octadecanyl] hexadecanoate

> <PUBCHEM_IUPAC_SYSTEMATIC_NAME>
[(1S,3R,6S,8R,11S,12S,15R,16R)-7,7,12,16-tetramethyl-15-[(2R)-6-methyl-5-methylidene-heptan-2-yl]-6-pentacyclo[9.7.0.01,3.03,8.012,16]octadecanyl] hexadecanoate

> <PUBCHEM_IUPAC_TRADITIONAL_NAME>
palmitic acid [(1S,3R,6S,8R,11S,12S,15R,16R)-15-[(1R)-4-isopropyl-1-methyl-pent-4-enyl]-7,7,12,16-tetramethyl-6-pentacyclo[9.7.0.01,3.03,8.012,16]octadecanyl] ester

> <PUBCHEM_IUPAC_INCHI>
InChI=1S/C47H82O2/c1-10-11-12-13-14-15-16-17-18-19-20-21-22-23-42(48)49-41-29-31-46-34-47(46)33-32-44(8)38(37(5)25-24-36(4)35(2)3)28-30-45(44,9)40(47)27-26-39(46)43(41,6)7/h35,37-41H,4,10-34H2,1-3,5-9H3/t37-,38-,39+,40+,41+,44-,45+,46-,47+/m1/s1

> <PUBCHEM_IUPAC_INCHIKEY>
DSWGTWGCIOOKRQ-ULBDXNRZSA-N

> <PUBCHEM_XLOGP3_AA>
18.2

> <PUBCHEM_EXACT_MASS>
678.631482

> <PUBCHEM_MOLECULAR_FORMULA>
C47H82O2

> <PUBCHEM_MOLECULAR_WEIGHT>
679.2

> <PUBCHEM_OPENEYE_CAN_SMILES>
CCCCCCCCCCCCCCCC(=O)OC1CCC23CC24CCC5(C(CCC5(C4CCC3C1(C)C)C)C(C)CCC(=C)C(C)C)C

> <PUBCHEM_OPENEYE_ISO_SMILES>
CCCCCCCCCCCCCCCC(=O)O[C@H]1CC[C@]23C[C@]24CC[C@@]5([C@H](CC[C@]5([C@@H]4CC[C@H]3C1(C)C)C)[C@H](C)CCC(=C)C(C)C)C

> <PUBCHEM_CACTVS_TPSA>
26.3

> <PUBCHEM_MONOISOTOPIC_WEIGHT>
678.631482

> <PUBCHEM_TOTAL_CHARGE>
0

> <PUBCHEM_HEAVY_ATOM_COUNT>
49

> <PUBCHEM_ATOM_DEF_STEREO_COUNT>
9

> <PUBCHEM_ATOM_UDEF_STEREO_COUNT>
0

> <PUBCHEM_BOND_DEF_STEREO_COUNT>
0

> <PUBCHEM_BOND_UDEF_STEREO_COUNT>
0

> <PUBCHEM_ISOTOPIC_ATOM_COUNT>
0

> <PUBCHEM_COMPONENT_COUNT>
1

> <PUBCHEM_CACTVS_TAUTO_COUNT>
-1

> <PUBCHEM_COORDINATE_TYPE>
1
5
255

> <PUBCHEM_BONDANNOTATIONS>
19  1  5
10  22  5
16  64  6
23  27  6
3  5  5
4  5  5
6  52  5
7  53  6
8  21  6

$$$$
