76419898
  -OEChem-09102003162D

 66 72  0     1  0  0  0  0  0999 V2000
    5.4275   -1.7756    0.0000 O   0  0  0  0  0  0  0  0  0  0  0  0
    3.3389    1.8951    0.0000 O   0  0  0  0  0  0  0  0  0  0  0  0
    8.1221   -2.3172    0.0000 O   0  0  0  0  0  0  0  0  0  0  0  0
    6.1435    2.0702    0.0000 O   0  0  0  0  0  0  0  0  0  0  0  0
    4.5896   -2.3034    0.0000 O   0  0  0  0  0  0  0  0  0  0  0  0
    7.2161   -3.8380    0.0000 O   0  0  0  0  0  0  0  0  0  0  0  0
   10.5529   -0.4109    0.0000 O   0  0  0  0  0  0  0  0  0  0  0  0
    6.0560    3.8380    0.0000 O   0  0  0  0  0  0  0  0  0  0  0  0
   10.1116   -2.1375    0.0000 O   0  0  0  0  0  0  0  0  0  0  0  0
   10.4391    1.3674    0.0000 O   0  0  0  0  0  0  0  0  0  0  0  0
    6.3380   -1.2688    0.0000 C   0  0  3  0  0  0  0  0  0  0  0  0
    5.4720   -0.7688    0.0000 C   0  0  3  0  0  0  0  0  0  0  0  0
    5.4720    0.2312    0.0000 C   0  0  3  0  0  0  0  0  0  0  0  0
    4.5780    0.7659    0.0000 C   0  0  3  0  0  0  0  0  0  0  0  0
    7.2040   -0.7688    0.0000 C   0  0  3  0  0  0  0  0  0  0  0  0
    6.3220   -2.3103    0.0000 C   0  0  3  0  0  0  0  0  0  0  0  0
    3.6720    0.2520    0.0000 C   0  0  3  0  0  0  0  0  0  0  0  0
    6.3380    0.7312    0.0000 C   0  0  0  0  0  0  0  0  0  0  0  0
    7.2040    0.2312    0.0000 C   0  0  0  0  0  0  0  0  0  0  0  0
    4.3680    1.7798    0.0000 C   0  0  3  0  0  0  0  0  0  0  0  0
    4.5780   -1.3034    0.0000 C   0  0  0  0  0  0  0  0  0  0  0  0
    3.6720   -0.7896    0.0000 C   0  0  0  0  0  0  0  0  0  0  0  0
    8.1140   -1.2756    0.0000 C   0  0  3  0  0  0  0  0  0  0  0  0
    2.9097    0.9528    0.0000 C   0  0  0  0  0  0  0  0  0  0  0  0
    6.1221   -1.8945    0.0000 C   0  0  0  0  0  0  0  0  0  0  0  0
    5.6374    0.9684    0.0000 C   0  0  0  0  0  0  0  0  0  0  0  0
    8.0701   -0.2688    0.0000 C   0  0  0  0  0  0  0  0  0  0  0  0
    7.2200   -2.8380    0.0000 C   0  0  0  0  0  0  0  0  0  0  0  0
    4.6907    2.8090    0.0000 C   0  0  0  0  0  0  0  0  0  0  0  0
    8.9742   -0.7656    0.0000 C   0  0  0  0  0  0  0  0  0  0  0  0
    2.0000    1.3681    0.0000 C   0  0  0  0  0  0  0  0  0  0  0  0
    2.2336    0.2160    0.0000 C   0  0  0  0  0  0  0  0  0  0  0  0
    5.5855    2.9557    0.0000 C   0  0  0  0  0  0  0  0  0  0  0  0
    9.8924   -1.1618    0.0000 C   0  0  3  0  0  0  0  0  0  0  0  0
    9.0672    0.2300    0.0000 C   0  0  0  0  0  0  0  0  0  0  0  0
   10.0429    0.4492    0.0000 C   0  0  0  0  0  0  0  0  0  0  0  0
    6.0089   -0.0788    0.0000 H   0  0  0  0  0  0  0  0  0  0  0  0
    6.0058   -2.8436    0.0000 H   0  0  0  0  0  0  0  0  0  0  0  0
    3.1043    0.0028    0.0000 H   0  0  0  0  0  0  0  0  0  0  0  0
    6.7366    1.2062    0.0000 H   0  0  0  0  0  0  0  0  0  0  0  0
    5.9395    1.2062    0.0000 H   0  0  0  0  0  0  0  0  0  0  0  0
    7.8146    0.1236    0.0000 H   0  0  0  0  0  0  0  0  0  0  0  0
    7.4161    0.8138    0.0000 H   0  0  0  0  0  0  0  0  0  0  0  0
    4.0294    2.2992    0.0000 H   0  0  0  0  0  0  0  0  0  0  0  0
    3.0611   -0.6835    0.0000 H   0  0  0  0  0  0  0  0  0  0  0  0
    3.4629   -1.3733    0.0000 H   0  0  0  0  0  0  0  0  0  0  0  0
    8.6539   -1.5804    0.0000 H   0  0  0  0  0  0  0  0  0  0  0  0
    5.5852   -2.2046    0.0000 H   0  0  0  0  0  0  0  0  0  0  0  0
    6.4322   -2.4314    0.0000 H   0  0  0  0  0  0  0  0  0  0  0  0
    6.6590   -1.5845    0.0000 H   0  0  0  0  0  0  0  0  0  0  0  0
    5.6265    0.3485    0.0000 H   0  0  0  0  0  0  0  0  0  0  0  0
    6.2419    0.8307    0.0000 H   0  0  0  0  0  0  0  0  0  0  0  0
    8.3801   -0.8057    0.0000 H   0  0  0  0  0  0  0  0  0  0  0  0
    8.6070    0.0412    0.0000 H   0  0  0  0  0  0  0  0  0  0  0  0
    7.7601    0.2682    0.0000 H   0  0  0  0  0  0  0  0  0  0  0  0
    4.6863    3.4290    0.0000 H   0  0  0  0  0  0  0  0  0  0  0  0
    4.0775    2.9006    0.0000 H   0  0  0  0  0  0  0  0  0  0  0  0
    2.2575    1.9321    0.0000 H   0  0  0  0  0  0  0  0  0  0  0  0
    1.4360    1.6256    0.0000 H   0  0  0  0  0  0  0  0  0  0  0  0
    1.7425    0.8041    0.0000 H   0  0  0  0  0  0  0  0  0  0  0  0
    1.7767    0.6352    0.0000 H   0  0  0  0  0  0  0  0  0  0  0  0
    1.8144   -0.2408    0.0000 H   0  0  0  0  0  0  0  0  0  0  0  0
    2.6904   -0.2032    0.0000 H   0  0  0  0  0  0  0  0  0  0  0  0
    9.4151   -1.5575    0.0000 H   0  0  0  0  0  0  0  0  0  0  0  0
    8.6017    0.6395    0.0000 H   0  0  0  0  0  0  0  0  0  0  0  0
   10.7035   -2.3222    0.0000 H   0  0  0  0  0  0  0  0  0  0  0  0
  1 11  1  0  0  0  0
  1 16  1  0  0  0  0
  2 20  1  0  0  0  0
  2 24  1  0  0  0  0
  3 23  1  0  0  0  0
  3 28  1  0  0  0  0
  4 26  1  0  0  0  0
  4 33  1  0  0  0  0
  5 21  2  0  0  0  0
  6 28  2  0  0  0  0
  7 34  1  0  0  0  0
  7 36  1  0  0  0  0
  8 33  2  0  0  0  0
  9 34  1  0  0  0  0
  9 66  1  0  0  0  0
 10 36  2  0  0  0  0
 11 12  1  0  0  0  0
 11 15  1  0  0  0  0
 11 16  1  0  0  0  0
 12 13  1  0  0  0  0
 12 21  1  0  0  0  0
 12 25  1  0  0  0  0
 13 14  1  0  0  0  0
 13 18  1  0  0  0  0
 13 37  1  0  0  0  0
 14 17  1  0  0  0  0
 14 20  1  0  0  0  0
 14 26  1  0  0  0  0
 15 19  1  0  0  0  0
 15 23  1  0  0  0  0
 15 27  1  0  0  0  0
 16 28  1  0  0  0  0
 16 38  1  0  0  0  0
 17 22  1  0  0  0  0
 17 24  1  0  0  0  0
 17 39  1  0  0  0  0
 18 19  1  0  0  0  0
 18 40  1  0  0  0  0
 18 41  1  0  0  0  0
 19 42  1  0  0  0  0
 19 43  1  0  0  0  0
 20 29  1  0  0  0  0
 20 44  1  0  0  0  0
 21 22  1  0  0  0  0
 22 45  1  0  0  0  0
 22 46  1  0  0  0  0
 23 30  1  0  0  0  0
 23 47  1  0  0  0  0
 24 31  1  0  0  0  0
 24 32  1  0  0  0  0
 25 48  1  0  0  0  0
 25 49  1  0  0  0  0
 25 50  1  0  0  0  0
 26 51  1  0  0  0  0
 26 52  1  0  0  0  0
 27 53  1  0  0  0  0
 27 54  1  0  0  0  0
 27 55  1  0  0  0  0
 29 33  1  0  0  0  0
 29 56  1  0  0  0  0
 29 57  1  0  0  0  0
 30 34  1  0  0  0  0
 30 35  2  0  0  0  0
 31 58  1  0  0  0  0
 31 59  1  0  0  0  0
 31 60  1  0  0  0  0
 32 61  1  0  0  0  0
 32 62  1  0  0  0  0
 32 63  1  0  0  0  0
 34 64  1  0  0  0  0
 35 36  1  0  0  0  0
 35 65  1  0  0  0  0
M  END
> <PUBCHEM_COMPOUND_CID>
76419898

> <PUBCHEM_COMPOUND_CANONICALIZED>
1

> <PUBCHEM_CACTVS_COMPLEXITY>
1170

> <PUBCHEM_CACTVS_HBOND_ACCEPTOR>
10

> <PUBCHEM_CACTVS_HBOND_DONOR>
1

> <PUBCHEM_CACTVS_ROTATABLE_BOND>
1

> <PUBCHEM_CACTVS_SUBSKEYS>
AAADceB4PAAAAAAAAAAAAAAAEgAAASIAAAA0aIEABIAAAEjQAAAAGgAACAAAD1SwgAMCCAAABgCIAqDSCAIAAAAgAAAACAFAAEgRFBYAIQQCUAAFoAAOMQPK7vzvgAAAAAAAAACAAAYAADAAAAAAAAAAAA==

> <PUBCHEM_IUPAC_OPENEYE_NAME>
19-(2-hydroxy-5-oxo-2H-furan-3-yl)-9,9,13,20-tetramethyl-4,8,15,18-tetraoxahexacyclo[11.9.0.02,7.02,10.014,16.014,20]docosane-5,12,17-trione

> <PUBCHEM_IUPAC_CAS_NAME>
19-(2-hydroxy-5-oxo-2H-furan-3-yl)-9,9,13,20-tetramethyl-4,8,15,18-tetraoxahexacyclo[11.9.0.02,7.02,10.014,16.014,20]docosane-5,12,17-trione

> <PUBCHEM_IUPAC_NAME_MARKUP>
19-(2-hydroxy-5-oxo-2<I>H</I>-furan-3-yl)-9,9,13,20-tetramethyl-4,8,15,18-tetraoxahexacyclo[11.9.0.0<SUP>2,7</SUP>.0<SUP>2,10</SUP>.0<SUP>14,16</SUP>.0<SUP>14,20</SUP>]docosane-5,12,17-trione

> <PUBCHEM_IUPAC_NAME>
19-(2-hydroxy-5-oxo-2H-furan-3-yl)-9,9,13,20-tetramethyl-4,8,15,18-tetraoxahexacyclo[11.9.0.02,7.02,10.014,16.014,20]docosane-5,12,17-trione

> <PUBCHEM_IUPAC_SYSTEMATIC_NAME>
9,9,13,20-tetramethyl-19-(2-oxidanyl-5-oxidanylidene-2H-furan-3-yl)-4,8,15,18-tetraoxahexacyclo[11.9.0.02,7.02,10.014,16.014,20]docosane-5,12,17-trione

> <PUBCHEM_IUPAC_TRADITIONAL_NAME>
19-(2-hydroxy-5-keto-2H-furan-3-yl)-9,9,13,20-tetramethyl-4,8,15,18-tetraoxahexacyclo[11.9.0.02,7.02,10.014,16.014,20]docosane-5,12,17-trione

> <PUBCHEM_IUPAC_INCHI>
InChI=1S/C26H30O10/c1-22(2)13-8-14(27)24(4)12(25(13)10-32-16(28)9-15(25)35-22)5-6-23(3)18(11-7-17(29)33-20(11)30)34-21(31)19-26(23,24)36-19/h7,12-13,15,18-20,30H,5-6,8-10H2,1-4H3

> <PUBCHEM_IUPAC_INCHIKEY>
RTPPVNISJHFPFX-UHFFFAOYSA-N

> <PUBCHEM_XLOGP3_AA>
0

> <PUBCHEM_EXACT_MASS>
502.183897

> <PUBCHEM_MOLECULAR_FORMULA>
C26H30O10

> <PUBCHEM_MOLECULAR_WEIGHT>
502.5

> <PUBCHEM_OPENEYE_CAN_SMILES>
CC1(C2CC(=O)C3(C(C24COC(=O)CC4O1)CCC5(C36C(O6)C(=O)OC5C7=CC(=O)OC7O)C)C)C

> <PUBCHEM_OPENEYE_ISO_SMILES>
CC1(C2CC(=O)C3(C(C24COC(=O)CC4O1)CCC5(C36C(O6)C(=O)OC5C7=CC(=O)OC7O)C)C)C

> <PUBCHEM_CACTVS_TPSA>
138

> <PUBCHEM_MONOISOTOPIC_WEIGHT>
502.183897

> <PUBCHEM_TOTAL_CHARGE>
0

> <PUBCHEM_HEAVY_ATOM_COUNT>
36

> <PUBCHEM_ATOM_DEF_STEREO_COUNT>
0

> <PUBCHEM_ATOM_UDEF_STEREO_COUNT>
10

> <PUBCHEM_BOND_DEF_STEREO_COUNT>
0

> <PUBCHEM_BOND_UDEF_STEREO_COUNT>
0

> <PUBCHEM_ISOTOPIC_ATOM_COUNT>
0

> <PUBCHEM_COMPONENT_COUNT>
1

> <PUBCHEM_CACTVS_TAUTO_COUNT>
-1

> <PUBCHEM_COORDINATE_TYPE>
1
5
255

> <PUBCHEM_BONDANNOTATIONS>
11  16  3
12  25  3
13  18  3
14  26  3
15  27  3
16  28  3
17  22  3
20  29  3
23  30  3
34  9  3

$$$$
