119245
  -OEChem-09012010292D

133141  0     1  0  0  0  0  0999 V2000
   10.8882    4.0403    0.0000 O   0  0  0  0  0  0  0  0  0  0  0  0
    9.1158    4.9351    0.0000 O   0  0  0  0  0  0  0  0  0  0  0  0
    9.4651   -4.2038    0.0000 O   0  0  0  0  0  0  0  0  0  0  0  0
    7.7331   -4.2038    0.0000 O   0  0  0  0  0  0  0  0  0  0  0  0
    9.4651   -6.2038    0.0000 O   0  0  0  0  0  0  0  0  0  0  0  0
    7.7331   -7.2038    0.0000 O   0  0  0  0  0  0  0  0  0  0  0  0
    6.0010   -6.2038    0.0000 O   0  0  0  0  0  0  0  0  0  0  0  0
   10.3312   -4.7038    0.0000 O   0  0  0  0  0  0  0  0  0  0  0  0
    6.0010   -3.2038    0.0000 O   0  0  0  0  0  0  0  0  0  0  0  0
    5.1350   -4.7038    0.0000 O   0  0  0  0  0  0  0  0  0  0  0  0
   11.1972   -7.2038    0.0000 O   0  0  0  0  0  0  0  0  0  0  0  0
   12.9292   -6.2038    0.0000 O   0  0  0  0  0  0  0  0  0  0  0  0
    4.2690   -7.2038    0.0000 O   0  0  0  0  0  0  0  0  0  0  0  0
   12.9292   -4.2038    0.0000 O   0  0  0  0  0  0  0  0  0  0  0  0
    2.5369   -6.2038    0.0000 O   0  0  0  0  0  0  0  0  0  0  0  0
    2.5369   -4.2038    0.0000 O   0  0  0  0  0  0  0  0  0  0  0  0
    9.4944    1.9931    0.0000 C   0  0  1  0  0  0  0  0  0  0  0  0
   10.3623    1.4965    0.0000 C   0  0  2  0  0  0  0  0  0  0  0  0
    9.6999    2.9657    0.0000 C   0  0  2  0  0  0  0  0  0  0  0  0
   10.3662    0.4965    0.0000 C   0  0  1  0  0  0  0  0  0  0  0  0
   10.6882    3.0726    0.0000 C   0  0  2  0  0  0  0  0  0  0  0  0
    9.5021   -0.0069    0.0000 C   0  0  2  0  0  0  0  0  0  0  0  0
   11.0968    2.1664    0.0000 C   0  0  0  0  0  0  0  0  0  0  0  0
    8.6303    1.4898    0.0000 C   0  0  0  0  0  0  0  0  0  0  0  0
    9.2976    3.8683    0.0000 C   0  0  1  0  0  0  0  0  0  0  0  0
    8.6342    0.4898    0.0000 C   0  0  0  0  0  0  0  0  0  0  0  0
    9.4901   -1.0484    0.0000 C   0  0  2  0  0  0  0  0  0  0  0  0
   10.0305    4.5311    0.0000 C   0  0  1  0  0  0  0  0  0  0  0  0
    8.6264    2.4898    0.0000 C   0  0  0  0  0  0  0  0  0  0  0  0
   11.2781   -0.0069    0.0000 C   0  0  0  0  0  0  0  0  0  0  0  0
   10.3901   -1.5727    0.0000 C   0  0  0  0  0  0  0  0  0  0  0  0
    8.5402   -1.5727    0.0000 C   0  0  0  0  0  0  0  0  0  0  0  0
    8.3192    4.0750    0.0000 C   0  0  0  0  0  0  0  0  0  0  0  0
   10.8378    5.1213    0.0000 C   0  0  0  0  0  0  0  0  0  0  0  0
   11.2902   -1.0484    0.0000 C   0  0  0  0  0  0  0  0  0  0  0  0
    8.6260   -0.5451    0.0000 C   0  0  0  0  0  0  0  0  0  0  0  0
   10.4027   -2.6576    0.0000 C   0  0  0  0  0  0  0  0  0  0  0  0
    8.5276   -2.6576    0.0000 C   0  0  0  0  0  0  0  0  0  0  0  0
    9.4651   -3.2038    0.0000 C   0  0  2  0  0  0  0  0  0  0  0  0
   10.7303    6.1155    0.0000 C   0  0  0  0  0  0  0  0  0  0  0  0
    9.8155    6.5195    0.0000 C   0  0  2  0  0  0  0  0  0  0  0  0
    9.0083    5.9293    0.0000 C   0  0  0  0  0  0  0  0  0  0  0  0
    9.7080    7.5138    0.0000 C   0  0  0  0  0  0  0  0  0  0  0  0
    8.5991   -4.7038    0.0000 C   0  0  2  0  0  0  0  0  0  0  0  0
    8.5991   -5.7038    0.0000 C   0  0  1  0  0  0  0  0  0  0  0  0
    7.7331   -6.2038    0.0000 C   0  0  2  0  0  0  0  0  0  0  0  0
    6.8671   -4.7038    0.0000 C   0  0  1  0  0  0  0  0  0  0  0  0
    6.8671   -5.7038    0.0000 C   0  0  1  0  0  0  0  0  0  0  0  0
    6.0010   -4.2038    0.0000 C   0  0  0  0  0  0  0  0  0  0  0  0
   10.3312   -5.7038    0.0000 C   0  0  2  0  0  0  0  0  0  0  0  0
   11.1972   -6.2038    0.0000 C   0  0  1  0  0  0  0  0  0  0  0  0
    5.1350   -5.7038    0.0000 C   0  0  2  0  0  0  0  0  0  0  0  0
   12.0632   -5.7038    0.0000 C   0  0  1  0  0  0  0  0  0  0  0  0
   11.1972   -4.2038    0.0000 C   0  0  2  0  0  0  0  0  0  0  0  0
    4.2690   -6.2038    0.0000 C   0  0  1  0  0  0  0  0  0  0  0  0
   12.0632   -4.7038    0.0000 C   0  0  2  0  0  0  0  0  0  0  0  0
    3.4030   -5.7038    0.0000 C   0  0  1  0  0  0  0  0  0  0  0  0
    4.2690   -4.2038    0.0000 C   0  0  2  0  0  0  0  0  0  0  0  0
    3.4030   -4.7038    0.0000 C   0  0  2  0  0  0  0  0  0  0  0  0
   11.1972   -3.2038    0.0000 C   0  0  0  0  0  0  0  0  0  0  0  0
    4.2690   -3.2038    0.0000 C   0  0  0  0  0  0  0  0  0  0  0  0
   11.1406    1.1548    0.0000 H   0  0  0  0  0  0  0  0  0  0  0  0
    8.8546    2.8762    0.0000 H   0  0  0  0  0  0  0  0  0  0  0  0
   11.0974    0.9300    0.0000 H   0  0  0  0  0  0  0  0  0  0  0  0
   11.5330    3.1658    0.0000 H   0  0  0  0  0  0  0  0  0  0  0  0
   10.2366   -0.4347    0.0000 H   0  0  0  0  0  0  0  0  0  0  0  0
   11.4642    1.6670    0.0000 H   0  0  0  0  0  0  0  0  0  0  0  0
   11.6321    2.4792    0.0000 H   0  0  0  0  0  0  0  0  0  0  0  0
    8.4160    2.0716    0.0000 H   0  0  0  0  0  0  0  0  0  0  0  0
    8.0201    1.3798    0.0000 H   0  0  0  0  0  0  0  0  0  0  0  0
    8.9078    3.3862    0.0000 H   0  0  0  0  0  0  0  0  0  0  0  0
    8.0232    0.5951    0.0000 H   0  0  0  0  0  0  0  0  0  0  0  0
    8.4244   -0.0936    0.0000 H   0  0  0  0  0  0  0  0  0  0  0  0
    8.9344    3.0279    0.0000 H   0  0  0  0  0  0  0  0  0  0  0  0
    8.0883    2.7977    0.0000 H   0  0  0  0  0  0  0  0  0  0  0  0
    8.3185    1.9517    0.0000 H   0  0  0  0  0  0  0  0  0  0  0  0
   11.8902   -0.1059    0.0000 H   0  0  0  0  0  0  0  0  0  0  0  0
   11.4804    0.5792    0.0000 H   0  0  0  0  0  0  0  0  0  0  0  0
    8.3379   -0.9866    0.0000 H   0  0  0  0  0  0  0  0  0  0  0  0
    7.9281   -1.6717    0.0000 H   0  0  0  0  0  0  0  0  0  0  0  0
    8.4473    4.6816    0.0000 H   0  0  0  0  0  0  0  0  0  0  0  0
    7.7125    4.2032    0.0000 H   0  0  0  0  0  0  0  0  0  0  0  0
    8.1910    3.4684    0.0000 H   0  0  0  0  0  0  0  0  0  0  0  0
   11.1112    4.5649    0.0000 H   0  0  0  0  0  0  0  0  0  0  0  0
   11.4333    5.2940    0.0000 H   0  0  0  0  0  0  0  0  0  0  0  0
   11.8295   -1.3543    0.0000 H   0  0  0  0  0  0  0  0  0  0  0  0
    8.9380   -0.0093    0.0000 H   0  0  0  0  0  0  0  0  0  0  0  0
    8.0902   -0.2330    0.0000 H   0  0  0  0  0  0  0  0  0  0  0  0
    8.3139   -1.0808    0.0000 H   0  0  0  0  0  0  0  0  0  0  0  0
   10.6185   -3.2389    0.0000 H   0  0  0  0  0  0  0  0  0  0  0  0
   11.0123   -2.5445    0.0000 H   0  0  0  0  0  0  0  0  0  0  0  0
    7.9180   -2.5445    0.0000 H   0  0  0  0  0  0  0  0  0  0  0  0
    8.3118   -3.2389    0.0000 H   0  0  0  0  0  0  0  0  0  0  0  0
   10.0027   -3.5127    0.0000 H   0  0  0  0  0  0  0  0  0  0  0  0
   11.3489    6.0741    0.0000 H   0  0  0  0  0  0  0  0  0  0  0  0
   10.8785    6.7176    0.0000 H   0  0  0  0  0  0  0  0  0  0  0  0
   10.3160    6.8855    0.0000 H   0  0  0  0  0  0  0  0  0  0  0  0
    8.7348    6.4858    0.0000 H   0  0  0  0  0  0  0  0  0  0  0  0
    8.4128    5.7567    0.0000 H   0  0  0  0  0  0  0  0  0  0  0  0
   10.3244    7.5804    0.0000 H   0  0  0  0  0  0  0  0  0  0  0  0
    9.6414    8.1302    0.0000 H   0  0  0  0  0  0  0  0  0  0  0  0
    9.0916    7.4471    0.0000 H   0  0  0  0  0  0  0  0  0  0  0  0
    8.5991   -4.0838    0.0000 H   0  0  0  0  0  0  0  0  0  0  0  0
    8.5991   -6.3238    0.0000 H   0  0  0  0  0  0  0  0  0  0  0  0
    7.1962   -6.5138    0.0000 H   0  0  0  0  0  0  0  0  0  0  0  0
    6.8671   -4.0838    0.0000 H   0  0  0  0  0  0  0  0  0  0  0  0
    6.3301   -5.3938    0.0000 H   0  0  0  0  0  0  0  0  0  0  0  0
    5.3905   -4.0961    0.0000 H   0  0  0  0  0  0  0  0  0  0  0  0
    5.7890   -4.7864    0.0000 H   0  0  0  0  0  0  0  0  0  0  0  0
    9.7942   -5.3938    0.0000 H   0  0  0  0  0  0  0  0  0  0  0  0
    7.1962   -7.5138    0.0000 H   0  0  0  0  0  0  0  0  0  0  0  0
   11.7341   -6.5138    0.0000 H   0  0  0  0  0  0  0  0  0  0  0  0
    5.1350   -6.3238    0.0000 H   0  0  0  0  0  0  0  0  0  0  0  0
    5.4641   -2.8938    0.0000 H   0  0  0  0  0  0  0  0  0  0  0  0
   12.6002   -5.3938    0.0000 H   0  0  0  0  0  0  0  0  0  0  0  0
   10.6603   -3.8938    0.0000 H   0  0  0  0  0  0  0  0  0  0  0  0
    3.7320   -6.5138    0.0000 H   0  0  0  0  0  0  0  0  0  0  0  0
   12.0632   -4.0838    0.0000 H   0  0  0  0  0  0  0  0  0  0  0  0
    2.8660   -5.3938    0.0000 H   0  0  0  0  0  0  0  0  0  0  0  0
   11.7341   -7.5138    0.0000 H   0  0  0  0  0  0  0  0  0  0  0  0
    4.8059   -3.8938    0.0000 H   0  0  0  0  0  0  0  0  0  0  0  0
    3.4030   -4.0838    0.0000 H   0  0  0  0  0  0  0  0  0  0  0  0
   11.8172   -3.2038    0.0000 H   0  0  0  0  0  0  0  0  0  0  0  0
   11.1972   -2.5838    0.0000 H   0  0  0  0  0  0  0  0  0  0  0  0
   10.5772   -3.2038    0.0000 H   0  0  0  0  0  0  0  0  0  0  0  0
   13.4662   -5.8938    0.0000 H   0  0  0  0  0  0  0  0  0  0  0  0
    3.7320   -7.5138    0.0000 H   0  0  0  0  0  0  0  0  0  0  0  0
   13.4662   -4.5138    0.0000 H   0  0  0  0  0  0  0  0  0  0  0  0
    4.8890   -3.2038    0.0000 H   0  0  0  0  0  0  0  0  0  0  0  0
    4.2690   -2.5838    0.0000 H   0  0  0  0  0  0  0  0  0  0  0  0
    3.6490   -3.2038    0.0000 H   0  0  0  0  0  0  0  0  0  0  0  0
    2.0000   -5.8938    0.0000 H   0  0  0  0  0  0  0  0  0  0  0  0
    2.5369   -3.5838    0.0000 H   0  0  0  0  0  0  0  0  0  0  0  0
  1 21  1  0  0  0  0
 28  1  1  6  0  0  0
  2 28  1  0  0  0  0
  2 42  1  0  0  0  0
 39  3  1  1  0  0  0
 44  3  1  1  0  0  0
  4 44  1  0  0  0  0
  4 47  1  0  0  0  0
 45  5  1  6  0  0  0
 50  5  1  6  0  0  0
 46  6  1  1  0  0  0
  6111  1  0  0  0  0
 48  7  1  6  0  0  0
 52  7  1  1  0  0  0
  8 50  1  0  0  0  0
  8 54  1  0  0  0  0
  9 49  1  0  0  0  0
  9114  1  0  0  0  0
 10 52  1  0  0  0  0
 10 58  1  0  0  0  0
 51 11  1  1  0  0  0
 11120  1  0  0  0  0
 53 12  1  1  0  0  0
 12126  1  0  0  0  0
 55 13  1  6  0  0  0
 13127  1  0  0  0  0
 56 14  1  6  0  0  0
 14128  1  0  0  0  0
 57 15  1  6  0  0  0
 15132  1  0  0  0  0
 59 16  1  1  0  0  0
 16133  1  0  0  0  0
 17 18  1  0  0  0  0
 17 19  1  0  0  0  0
 17 24  1  0  0  0  0
 17 29  1  1  0  0  0
 18 20  1  0  0  0  0
 18 23  1  0  0  0  0
 18 62  1  6  0  0  0
 19 21  1  0  0  0  0
 19 25  1  0  0  0  0
 19 63  1  6  0  0  0
 20 22  1  0  0  0  0
 20 30  1  0  0  0  0
 20 64  1  1  0  0  0
 21 23  1  0  0  0  0
 21 65  1  6  0  0  0
 22 26  1  0  0  0  0
 22 27  1  0  0  0  0
 22 66  1  6  0  0  0
 23 67  1  0  0  0  0
 23 68  1  0  0  0  0
 24 26  1  0  0  0  0
 24 69  1  0  0  0  0
 24 70  1  0  0  0  0
 25 28  1  0  0  0  0
 25 33  1  6  0  0  0
 25 71  1  0  0  0  0
 26 72  1  0  0  0  0
 26 73  1  0  0  0  0
 27 31  1  0  0  0  0
 27 32  1  0  0  0  0
 27 36  1  1  0  0  0
 28 34  1  0  0  0  0
 29 74  1  0  0  0  0
 29 75  1  0  0  0  0
 29 76  1  0  0  0  0
 30 35  1  0  0  0  0
 30 77  1  0  0  0  0
 30 78  1  0  0  0  0
 31 35  2  0  0  0  0
 31 37  1  0  0  0  0
 32 38  1  0  0  0  0
 32 79  1  0  0  0  0
 32 80  1  0  0  0  0
 33 81  1  0  0  0  0
 33 82  1  0  0  0  0
 33 83  1  0  0  0  0
 34 40  1  0  0  0  0
 34 84  1  0  0  0  0
 34 85  1  0  0  0  0
 35 86  1  0  0  0  0
 36 87  1  0  0  0  0
 36 88  1  0  0  0  0
 36 89  1  0  0  0  0
 37 39  1  0  0  0  0
 37 90  1  0  0  0  0
 37 91  1  0  0  0  0
 38 39  1  0  0  0  0
 38 92  1  0  0  0  0
 38 93  1  0  0  0  0
 39 94  1  0  0  0  0
 40 41  1  0  0  0  0
 40 95  1  0  0  0  0
 40 96  1  0  0  0  0
 41 42  1  0  0  0  0
 41 43  1  6  0  0  0
 41 97  1  0  0  0  0
 42 98  1  0  0  0  0
 42 99  1  0  0  0  0
 43100  1  0  0  0  0
 43101  1  0  0  0  0
 43102  1  0  0  0  0
 44 45  1  0  0  0  0
 44103  1  0  0  0  0
 45 46  1  0  0  0  0
 45104  1  0  0  0  0
 46 48  1  0  0  0  0
 46105  1  0  0  0  0
 47 48  1  0  0  0  0
 47 49  1  1  0  0  0
 47106  1  0  0  0  0
 48107  1  0  0  0  0
 49108  1  0  0  0  0
 49109  1  0  0  0  0
 50 51  1  0  0  0  0
 50110  1  0  0  0  0
 51 53  1  0  0  0  0
 51112  1  0  0  0  0
 52 55  1  0  0  0  0
 52113  1  0  0  0  0
 53 56  1  0  0  0  0
 53115  1  0  0  0  0
 54 56  1  0  0  0  0
 54 60  1  1  0  0  0
 54116  1  0  0  0  0
 55 57  1  0  0  0  0
 55117  1  0  0  0  0
 56118  1  0  0  0  0
 57 59  1  0  0  0  0
 57119  1  0  0  0  0
 58 59  1  0  0  0  0
 58 61  1  6  0  0  0
 58121  1  0  0  0  0
 59122  1  0  0  0  0
 60123  1  0  0  0  0
 60124  1  0  0  0  0
 60125  1  0  0  0  0
 61129  1  0  0  0  0
 61130  1  0  0  0  0
 61131  1  0  0  0  0
M  END
> <PUBCHEM_COMPOUND_CID>
119245

> <PUBCHEM_COMPOUND_CANONICALIZED>
1

> <PUBCHEM_CACTVS_COMPLEXITY>
1600

> <PUBCHEM_CACTVS_HBOND_ACCEPTOR>
16

> <PUBCHEM_CACTVS_HBOND_DONOR>
8

> <PUBCHEM_CACTVS_ROTATABLE_BOND>
7

> <PUBCHEM_CACTVS_SUBSKEYS>
AAADcfB8PgAAAAAAAAAAAAAAAAAAAaIAAAA0aJEiAAASAGCAAAAAGgAACAAADxSwgAMCCAAABgCAAiBCAAAAAAAgAAAACAAAAAgREAIAAQAiQAAFwAAPAAPA4PwPgAAAAAAAAADAAAQAACAAAYAADAAAAA==

> <PUBCHEM_IUPAC_OPENEYE_NAME>
(2S,3R,4R,5R,6S)-2-[(2R,3S,4S,5R,6R)-4-hydroxy-2-(hydroxymethyl)-6-[(1S,2S,4S,5'R,6R,7S,8R,9S,12S,13R,16S)-5',7,9,13-tetramethylspiro[5-oxapentacyclo[10.8.0.02,9.04,8.013,18]icos-18-ene-6,2'-tetrahydropyran]-16-yl]oxy-5-[(2S,3R,4R,5R,6S)-3,4,5-trihydroxy-6-methyl-tetrahydropyran-2-yl]oxy-tetrahydropyran-3-yl]oxy-6-methyl-tetrahydropyran-3,4,5-triol

> <PUBCHEM_IUPAC_CAS_NAME>
(2S,3R,4R,5R,6S)-2-[[(2R,3S,4S,5R,6R)-4-hydroxy-2-(hydroxymethyl)-6-[[(1S,2S,4S,5'R,6R,7S,8R,9S,12S,13R,16S)-5',7,9,13-tetramethyl-16-spiro[5-oxapentacyclo[10.8.0.02,9.04,8.013,18]eicos-18-ene-6,2'-oxane]yl]oxy]-5-[[(2S,3R,4R,5R,6S)-3,4,5-trihydroxy-6-methyl-2-oxanyl]oxy]-3-oxanyl]oxy]-6-methyloxane-3,4,5-triol

> <PUBCHEM_IUPAC_NAME_MARKUP>
(2<I>S</I>,3<I>R</I>,4<I>R</I>,5<I>R</I>,6<I>S</I>)-2-[(2<I>R</I>,3<I>S</I>,4<I>S</I>,5<I>R</I>,6<I>R</I>)-4-hydroxy-2-(hydroxymethyl)-6-[(1<I>S</I>,2<I>S</I>,4<I>S</I>,5&apos;<I>R</I>,6<I>R</I>,7<I>S</I>,8<I>R</I>,9<I>S</I>,12<I>S</I>,13<I>R</I>,16<I>S</I>)-5&apos;,7,9,13-tetramethylspiro[5-oxapentacyclo[10.8.0.0<SUP>2,9</SUP>.0<SUP>4,8</SUP>.0<SUP>13,18</SUP>]icos-18-ene-6,2&apos;-oxane]-16-yl]oxy-5-[(2<I>S</I>,3<I>R</I>,4<I>R</I>,5<I>R</I>,6<I>S</I>)-3,4,5-trihydroxy-6-methyloxan-2-yl]oxyoxan-3-yl]oxy-6-methyloxane-3,4,5-triol

> <PUBCHEM_IUPAC_NAME>
(2S,3R,4R,5R,6S)-2-[(2R,3S,4S,5R,6R)-4-hydroxy-2-(hydroxymethyl)-6-[(1S,2S,4S,5'R,6R,7S,8R,9S,12S,13R,16S)-5',7,9,13-tetramethylspiro[5-oxapentacyclo[10.8.0.02,9.04,8.013,18]icos-18-ene-6,2'-oxane]-16-yl]oxy-5-[(2S,3R,4R,5R,6S)-3,4,5-trihydroxy-6-methyloxan-2-yl]oxyoxan-3-yl]oxy-6-methyloxane-3,4,5-triol

> <PUBCHEM_IUPAC_SYSTEMATIC_NAME>
(2S,3R,4R,5R,6S)-2-[(2R,3S,4S,5R,6R)-2-(hydroxymethyl)-5-[(2S,3R,4R,5R,6S)-6-methyl-3,4,5-tris(oxidanyl)oxan-2-yl]oxy-4-oxidanyl-6-[(1S,2S,4S,5'R,6R,7S,8R,9S,12S,13R,16S)-5',7,9,13-tetramethylspiro[5-oxapentacyclo[10.8.0.02,9.04,8.013,18]icos-18-ene-6,2'-oxane]-16-yl]oxy-oxan-3-yl]oxy-6-methyl-oxane-3,4,5-triol

> <PUBCHEM_IUPAC_TRADITIONAL_NAME>
(2S,3R,4R,5R,6S)-2-[(2R,3S,4S,5R,6R)-4-hydroxy-2-methylol-6-[(1S,2S,4S,5'R,6R,7S,8R,9S,12S,13R,16S)-5',7,9,13-tetramethylspiro[5-oxapentacyclo[10.8.0.02,9.04,8.013,18]eicos-18-ene-6,2'-tetrahydropyran]-16-yl]oxy-5-[(2S,3R,4R,5R,6S)-3,4,5-trihydroxy-6-methyl-tetrahydropyran-2-yl]oxy-tetrahydropyran-3-yl]oxy-6-methyl-tetrahydropyran-3,4,5-triol

> <PUBCHEM_IUPAC_INCHI>
InChI=1S/C45H72O16/c1-19-9-14-45(54-18-19)20(2)30-28(61-45)16-27-25-8-7-23-15-24(10-12-43(23,5)26(25)11-13-44(27,30)6)57-42-39(60-41-36(52)34(50)32(48)22(4)56-41)37(53)38(29(17-46)58-42)59-40-35(51)33(49)31(47)21(3)55-40/h7,19-22,24-42,46-53H,8-18H2,1-6H3/t19-,20+,21+,22+,24+,25-,26+,27+,28+,29-,30+,31+,32+,33-,34-,35-,36-,37+,38-,39-,40+,41+,42-,43+,44+,45-/m1/s1

> <PUBCHEM_IUPAC_INCHIKEY>
VNONINPVFQTJOC-ZGXDEBHDSA-N

> <PUBCHEM_XLOGP3_AA>
1.3

> <PUBCHEM_EXACT_MASS>
868.482036

> <PUBCHEM_MOLECULAR_FORMULA>
C45H72O16

> <PUBCHEM_MOLECULAR_WEIGHT>
869

> <PUBCHEM_OPENEYE_CAN_SMILES>
CC1CCC2(C(C3C(O2)CC4C3(CCC5C4CC=C6C5(CCC(C6)OC7C(C(C(C(O7)CO)OC8C(C(C(C(O8)C)O)O)O)O)OC9C(C(C(C(O9)C)O)O)O)C)C)C)OC1

> <PUBCHEM_OPENEYE_ISO_SMILES>
C[C@@H]1CC[C@@]2([C@H]([C@H]3[C@@H](O2)C[C@@H]4[C@@]3(CC[C@H]5[C@H]4CC=C6[C@@]5(CC[C@@H](C6)O[C@H]7[C@@H]([C@H]([C@@H]([C@H](O7)CO)O[C@H]8[C@@H]([C@@H]([C@H]([C@@H](O8)C)O)O)O)O)O[C@H]9[C@@H]([C@@H]([C@H]([C@@H](O9)C)O)O)O)C)C)C)OC1

> <PUBCHEM_CACTVS_TPSA>
236

> <PUBCHEM_MONOISOTOPIC_WEIGHT>
868.482036

> <PUBCHEM_TOTAL_CHARGE>
0

> <PUBCHEM_HEAVY_ATOM_COUNT>
61

> <PUBCHEM_ATOM_DEF_STEREO_COUNT>
26

> <PUBCHEM_ATOM_UDEF_STEREO_COUNT>
0

> <PUBCHEM_BOND_DEF_STEREO_COUNT>
0

> <PUBCHEM_BOND_UDEF_STEREO_COUNT>
0

> <PUBCHEM_ISOTOPIC_ATOM_COUNT>
0

> <PUBCHEM_COMPONENT_COUNT>
1

> <PUBCHEM_CACTVS_TAUTO_COUNT>
-1

> <PUBCHEM_COORDINATE_TYPE>
1
5
255

> <PUBCHEM_BONDANNOTATIONS>
28  1  6
51  11  5
53  12  5
55  13  6
56  14  6
57  15  6
59  16  5
17  29  5
18  62  6
19  63  6
20  64  5
21  65  6
22  66  6
25  33  6
27  36  5
39  3  5
44  3  5
41  43  6
47  49  5
45  5  6
50  5  6
54  60  5
58  61  6
46  6  5
48  7  6
52  7  5

$$$$
