11148
  -OEChem-09092013372D

137136  0     0  0  0  0  0  0999 V2000
   16.7224    5.7500    0.0000 O   0  0  0  0  0  0  0  0  0  0  0  0
   14.1244    5.2500    0.0000 O   0  0  0  0  0  0  0  0  0  0  0  0
   14.9904    3.7500    0.0000 O   0  0  0  0  0  0  0  0  0  0  0  0
   17.5885    4.2500    0.0000 O   0  0  0  0  0  0  0  0  0  0  0  0
   13.2583    6.7500    0.0000 O   0  0  0  0  0  0  0  0  0  0  0  0
   15.8564    2.2500    0.0000 O   0  0  0  0  0  0  0  0  0  0  0  0
   22.7846    5.2500    0.0000 C   0  0  0  0  0  0  0  0  0  0  0  0
   23.6506    5.7500    0.0000 C   0  0  0  0  0  0  0  0  0  0  0  0
    8.0622    5.7500    0.0000 C   0  0  0  0  0  0  0  0  0  0  0  0
   12.3923   -1.7500    0.0000 C   0  0  0  0  0  0  0  0  0  0  0  0
    7.1962    5.2500    0.0000 C   0  0  0  0  0  0  0  0  0  0  0  0
   11.5263   -2.2500    0.0000 C   0  0  0  0  0  0  0  0  0  0  0  0
   21.9186    5.7500    0.0000 C   0  0  0  0  0  0  0  0  0  0  0  0
   24.5167    5.2500    0.0000 C   0  0  0  0  0  0  0  0  0  0  0  0
    8.9282    5.2500    0.0000 C   0  0  0  0  0  0  0  0  0  0  0  0
   12.3923   -0.7500    0.0000 C   0  0  0  0  0  0  0  0  0  0  0  0
    6.3301    5.7500    0.0000 C   0  0  0  0  0  0  0  0  0  0  0  0
   11.5263   -3.2500    0.0000 C   0  0  0  0  0  0  0  0  0  0  0  0
   21.0526    5.2500    0.0000 C   0  0  0  0  0  0  0  0  0  0  0  0
   25.3827    5.7500    0.0000 C   0  0  0  0  0  0  0  0  0  0  0  0
    9.7942    5.7500    0.0000 C   0  0  0  0  0  0  0  0  0  0  0  0
   13.2583   -0.2500    0.0000 C   0  0  0  0  0  0  0  0  0  0  0  0
    5.4641    5.2500    0.0000 C   0  0  0  0  0  0  0  0  0  0  0  0
   10.6603   -3.7500    0.0000 C   0  0  0  0  0  0  0  0  0  0  0  0
   20.1865    5.7500    0.0000 C   0  0  0  0  0  0  0  0  0  0  0  0
   26.2487    5.2500    0.0000 C   0  0  0  0  0  0  0  0  0  0  0  0
   10.6603    5.2500    0.0000 C   0  0  0  0  0  0  0  0  0  0  0  0
   13.2583    0.7500    0.0000 C   0  0  0  0  0  0  0  0  0  0  0  0
    4.5981    5.7500    0.0000 C   0  0  0  0  0  0  0  0  0  0  0  0
   10.6603   -4.7500    0.0000 C   0  0  0  0  0  0  0  0  0  0  0  0
   19.3205    5.2500    0.0000 C   0  0  0  0  0  0  0  0  0  0  0  0
   27.1147    5.7500    0.0000 C   0  0  0  0  0  0  0  0  0  0  0  0
   11.5263    5.7500    0.0000 C   0  0  0  0  0  0  0  0  0  0  0  0
   14.1244    1.2500    0.0000 C   0  0  0  0  0  0  0  0  0  0  0  0
    3.7320    5.2500    0.0000 C   0  0  0  0  0  0  0  0  0  0  0  0
    9.7942   -5.2500    0.0000 C   0  0  0  0  0  0  0  0  0  0  0  0
   18.4545    5.7500    0.0000 C   0  0  0  0  0  0  0  0  0  0  0  0
   12.3923    5.2500    0.0000 C   0  0  0  0  0  0  0  0  0  0  0  0
   14.1244    2.2500    0.0000 C   0  0  0  0  0  0  0  0  0  0  0  0
   27.9808    5.2500    0.0000 C   0  0  0  0  0  0  0  0  0  0  0  0
    2.8660    5.7500    0.0000 C   0  0  0  0  0  0  0  0  0  0  0  0
    9.7942   -6.2500    0.0000 C   0  0  0  0  0  0  0  0  0  0  0  0
   15.8564    5.2500    0.0000 C   0  0  0  0  0  0  0  0  0  0  0  0
   17.5885    5.2500    0.0000 C   0  0  0  0  0  0  0  0  0  0  0  0
   14.9904    5.7500    0.0000 C   0  0  0  0  0  0  0  0  0  0  0  0
   15.8564    4.2500    0.0000 C   0  0  0  0  0  0  0  0  0  0  0  0
   13.2583    5.7500    0.0000 C   0  0  0  0  0  0  0  0  0  0  0  0
   14.9904    2.7500    0.0000 C   0  0  0  0  0  0  0  0  0  0  0  0
   28.8468    5.7500    0.0000 C   0  0  0  0  0  0  0  0  0  0  0  0
    2.0000    5.2500    0.0000 C   0  0  0  0  0  0  0  0  0  0  0  0
    8.9282   -6.7500    0.0000 C   0  0  0  0  0  0  0  0  0  0  0  0
   22.3861    4.7750    0.0000 H   0  0  0  0  0  0  0  0  0  0  0  0
   23.1831    4.7750    0.0000 H   0  0  0  0  0  0  0  0  0  0  0  0
   24.0492    6.2250    0.0000 H   0  0  0  0  0  0  0  0  0  0  0  0
   23.2521    6.2250    0.0000 H   0  0  0  0  0  0  0  0  0  0  0  0
    8.4607    6.2250    0.0000 H   0  0  0  0  0  0  0  0  0  0  0  0
    7.6636    6.2250    0.0000 H   0  0  0  0  0  0  0  0  0  0  0  0
   12.6044   -2.3326    0.0000 H   0  0  0  0  0  0  0  0  0  0  0  0
   13.0029   -1.6423    0.0000 H   0  0  0  0  0  0  0  0  0  0  0  0
    6.7976    4.7750    0.0000 H   0  0  0  0  0  0  0  0  0  0  0  0
    7.5947    4.7750    0.0000 H   0  0  0  0  0  0  0  0  0  0  0  0
   11.3142   -1.6674    0.0000 H   0  0  0  0  0  0  0  0  0  0  0  0
   10.9157   -2.3577    0.0000 H   0  0  0  0  0  0  0  0  0  0  0  0
   22.3171    6.2250    0.0000 H   0  0  0  0  0  0  0  0  0  0  0  0
   21.5201    6.2250    0.0000 H   0  0  0  0  0  0  0  0  0  0  0  0
   24.1181    4.7750    0.0000 H   0  0  0  0  0  0  0  0  0  0  0  0
   24.9152    4.7750    0.0000 H   0  0  0  0  0  0  0  0  0  0  0  0
    8.5297    4.7750    0.0000 H   0  0  0  0  0  0  0  0  0  0  0  0
    9.3267    4.7750    0.0000 H   0  0  0  0  0  0  0  0  0  0  0  0
   12.1803   -0.1674    0.0000 H   0  0  0  0  0  0  0  0  0  0  0  0
   11.7817   -0.8577    0.0000 H   0  0  0  0  0  0  0  0  0  0  0  0
    6.7287    6.2250    0.0000 H   0  0  0  0  0  0  0  0  0  0  0  0
    5.9316    6.2250    0.0000 H   0  0  0  0  0  0  0  0  0  0  0  0
   11.7383   -3.8326    0.0000 H   0  0  0  0  0  0  0  0  0  0  0  0
   12.1369   -3.1423    0.0000 H   0  0  0  0  0  0  0  0  0  0  0  0
   20.6540    4.7750    0.0000 H   0  0  0  0  0  0  0  0  0  0  0  0
   21.4511    4.7750    0.0000 H   0  0  0  0  0  0  0  0  0  0  0  0
   25.7812    6.2250    0.0000 H   0  0  0  0  0  0  0  0  0  0  0  0
   24.9842    6.2250    0.0000 H   0  0  0  0  0  0  0  0  0  0  0  0
   10.1928    6.2250    0.0000 H   0  0  0  0  0  0  0  0  0  0  0  0
    9.3957    6.2250    0.0000 H   0  0  0  0  0  0  0  0  0  0  0  0
   13.4704   -0.8326    0.0000 H   0  0  0  0  0  0  0  0  0  0  0  0
   13.8689   -0.1423    0.0000 H   0  0  0  0  0  0  0  0  0  0  0  0
    5.0656    4.7750    0.0000 H   0  0  0  0  0  0  0  0  0  0  0  0
    5.8626    4.7750    0.0000 H   0  0  0  0  0  0  0  0  0  0  0  0
   10.4482   -3.1674    0.0000 H   0  0  0  0  0  0  0  0  0  0  0  0
   10.0497   -3.8577    0.0000 H   0  0  0  0  0  0  0  0  0  0  0  0
   20.5851    6.2250    0.0000 H   0  0  0  0  0  0  0  0  0  0  0  0
   19.7880    6.2250    0.0000 H   0  0  0  0  0  0  0  0  0  0  0  0
   25.8502    4.7750    0.0000 H   0  0  0  0  0  0  0  0  0  0  0  0
   26.6472    4.7750    0.0000 H   0  0  0  0  0  0  0  0  0  0  0  0
   10.2617    4.7750    0.0000 H   0  0  0  0  0  0  0  0  0  0  0  0
   11.0588    4.7750    0.0000 H   0  0  0  0  0  0  0  0  0  0  0  0
   13.0463    1.3326    0.0000 H   0  0  0  0  0  0  0  0  0  0  0  0
   12.6477    0.6423    0.0000 H   0  0  0  0  0  0  0  0  0  0  0  0
    4.9966    6.2250    0.0000 H   0  0  0  0  0  0  0  0  0  0  0  0
    4.1996    6.2250    0.0000 H   0  0  0  0  0  0  0  0  0  0  0  0
   10.8723   -5.3326    0.0000 H   0  0  0  0  0  0  0  0  0  0  0  0
   11.2708   -4.6423    0.0000 H   0  0  0  0  0  0  0  0  0  0  0  0
   18.9220    4.7750    0.0000 H   0  0  0  0  0  0  0  0  0  0  0  0
   19.7190    4.7750    0.0000 H   0  0  0  0  0  0  0  0  0  0  0  0
   27.5133    6.2250    0.0000 H   0  0  0  0  0  0  0  0  0  0  0  0
   26.7162    6.2250    0.0000 H   0  0  0  0  0  0  0  0  0  0  0  0
   11.9248    6.2250    0.0000 H   0  0  0  0  0  0  0  0  0  0  0  0
   11.1278    6.2250    0.0000 H   0  0  0  0  0  0  0  0  0  0  0  0
   14.3364    0.6674    0.0000 H   0  0  0  0  0  0  0  0  0  0  0  0
   14.7349    1.3577    0.0000 H   0  0  0  0  0  0  0  0  0  0  0  0
    3.3335    4.7750    0.0000 H   0  0  0  0  0  0  0  0  0  0  0  0
    4.1306    4.7750    0.0000 H   0  0  0  0  0  0  0  0  0  0  0  0
    9.5822   -4.6674    0.0000 H   0  0  0  0  0  0  0  0  0  0  0  0
    9.1836   -5.3577    0.0000 H   0  0  0  0  0  0  0  0  0  0  0  0
   18.8530    6.2250    0.0000 H   0  0  0  0  0  0  0  0  0  0  0  0
   18.0560    6.2250    0.0000 H   0  0  0  0  0  0  0  0  0  0  0  0
   11.9938    4.7750    0.0000 H   0  0  0  0  0  0  0  0  0  0  0  0
   12.7908    4.7750    0.0000 H   0  0  0  0  0  0  0  0  0  0  0  0
   13.9123    2.8326    0.0000 H   0  0  0  0  0  0  0  0  0  0  0  0
   13.5138    2.1423    0.0000 H   0  0  0  0  0  0  0  0  0  0  0  0
   27.5822    4.7750    0.0000 H   0  0  0  0  0  0  0  0  0  0  0  0
   28.3793    4.7750    0.0000 H   0  0  0  0  0  0  0  0  0  0  0  0
    3.2646    6.2250    0.0000 H   0  0  0  0  0  0  0  0  0  0  0  0
    2.4675    6.2250    0.0000 H   0  0  0  0  0  0  0  0  0  0  0  0
   10.0063   -6.8326    0.0000 H   0  0  0  0  0  0  0  0  0  0  0  0
   10.4048   -6.1423    0.0000 H   0  0  0  0  0  0  0  0  0  0  0  0
   16.3933    4.9400    0.0000 H   0  0  0  0  0  0  0  0  0  0  0  0
   15.3889    6.2250    0.0000 H   0  0  0  0  0  0  0  0  0  0  0  0
   14.5919    6.2250    0.0000 H   0  0  0  0  0  0  0  0  0  0  0  0
   16.0685    3.6674    0.0000 H   0  0  0  0  0  0  0  0  0  0  0  0
   16.4670    4.3577    0.0000 H   0  0  0  0  0  0  0  0  0  0  0  0
   29.1568    5.2131    0.0000 H   0  0  0  0  0  0  0  0  0  0  0  0
   29.3837    6.0600    0.0000 H   0  0  0  0  0  0  0  0  0  0  0  0
   28.5368    6.2869    0.0000 H   0  0  0  0  0  0  0  0  0  0  0  0
    1.6900    5.7869    0.0000 H   0  0  0  0  0  0  0  0  0  0  0  0
    1.4631    4.9400    0.0000 H   0  0  0  0  0  0  0  0  0  0  0  0
    2.3100    4.7131    0.0000 H   0  0  0  0  0  0  0  0  0  0  0  0
    8.6182   -6.2131    0.0000 H   0  0  0  0  0  0  0  0  0  0  0  0
    8.3913   -7.0600    0.0000 H   0  0  0  0  0  0  0  0  0  0  0  0
    9.2382   -7.2869    0.0000 H   0  0  0  0  0  0  0  0  0  0  0  0
  1 43  1  0  0  0  0
  1 44  1  0  0  0  0
  2 45  1  0  0  0  0
  2 47  1  0  0  0  0
  3 46  1  0  0  0  0
  3 48  1  0  0  0  0
  4 44  2  0  0  0  0
  5 47  2  0  0  0  0
  6 48  2  0  0  0  0
  7  8  1  0  0  0  0
  7 13  1  0  0  0  0
  7 52  1  0  0  0  0
  7 53  1  0  0  0  0
  8 14  1  0  0  0  0
  8 54  1  0  0  0  0
  8 55  1  0  0  0  0
  9 11  1  0  0  0  0
  9 15  1  0  0  0  0
  9 56  1  0  0  0  0
  9 57  1  0  0  0  0
 10 12  1  0  0  0  0
 10 16  1  0  0  0  0
 10 58  1  0  0  0  0
 10 59  1  0  0  0  0
 11 17  1  0  0  0  0
 11 60  1  0  0  0  0
 11 61  1  0  0  0  0
 12 18  1  0  0  0  0
 12 62  1  0  0  0  0
 12 63  1  0  0  0  0
 13 19  1  0  0  0  0
 13 64  1  0  0  0  0
 13 65  1  0  0  0  0
 14 20  1  0  0  0  0
 14 66  1  0  0  0  0
 14 67  1  0  0  0  0
 15 21  1  0  0  0  0
 15 68  1  0  0  0  0
 15 69  1  0  0  0  0
 16 22  1  0  0  0  0
 16 70  1  0  0  0  0
 16 71  1  0  0  0  0
 17 23  1  0  0  0  0
 17 72  1  0  0  0  0
 17 73  1  0  0  0  0
 18 24  1  0  0  0  0
 18 74  1  0  0  0  0
 18 75  1  0  0  0  0
 19 25  1  0  0  0  0
 19 76  1  0  0  0  0
 19 77  1  0  0  0  0
 20 26  1  0  0  0  0
 20 78  1  0  0  0  0
 20 79  1  0  0  0  0
 21 27  1  0  0  0  0
 21 80  1  0  0  0  0
 21 81  1  0  0  0  0
 22 28  1  0  0  0  0
 22 82  1  0  0  0  0
 22 83  1  0  0  0  0
 23 29  1  0  0  0  0
 23 84  1  0  0  0  0
 23 85  1  0  0  0  0
 24 30  1  0  0  0  0
 24 86  1  0  0  0  0
 24 87  1  0  0  0  0
 25 31  1  0  0  0  0
 25 88  1  0  0  0  0
 25 89  1  0  0  0  0
 26 32  1  0  0  0  0
 26 90  1  0  0  0  0
 26 91  1  0  0  0  0
 27 33  1  0  0  0  0
 27 92  1  0  0  0  0
 27 93  1  0  0  0  0
 28 34  1  0  0  0  0
 28 94  1  0  0  0  0
 28 95  1  0  0  0  0
 29 35  1  0  0  0  0
 29 96  1  0  0  0  0
 29 97  1  0  0  0  0
 30 36  1  0  0  0  0
 30 98  1  0  0  0  0
 30 99  1  0  0  0  0
 31 37  1  0  0  0  0
 31100  1  0  0  0  0
 31101  1  0  0  0  0
 32 40  1  0  0  0  0
 32102  1  0  0  0  0
 32103  1  0  0  0  0
 33 38  1  0  0  0  0
 33104  1  0  0  0  0
 33105  1  0  0  0  0
 34 39  1  0  0  0  0
 34106  1  0  0  0  0
 34107  1  0  0  0  0
 35 41  1  0  0  0  0
 35108  1  0  0  0  0
 35109  1  0  0  0  0
 36 42  1  0  0  0  0
 36110  1  0  0  0  0
 36111  1  0  0  0  0
 37 44  1  0  0  0  0
 37112  1  0  0  0  0
 37113  1  0  0  0  0
 38 47  1  0  0  0  0
 38114  1  0  0  0  0
 38115  1  0  0  0  0
 39 48  1  0  0  0  0
 39116  1  0  0  0  0
 39117  1  0  0  0  0
 40 49  1  0  0  0  0
 40118  1  0  0  0  0
 40119  1  0  0  0  0
 41 50  1  0  0  0  0
 41120  1  0  0  0  0
 41121  1  0  0  0  0
 42 51  1  0  0  0  0
 42122  1  0  0  0  0
 42123  1  0  0  0  0
 43 45  1  0  0  0  0
 43 46  1  0  0  0  0
 43124  1  0  0  0  0
 45125  1  0  0  0  0
 45126  1  0  0  0  0
 46127  1  0  0  0  0
 46128  1  0  0  0  0
 49129  1  0  0  0  0
 49130  1  0  0  0  0
 49131  1  0  0  0  0
 50132  1  0  0  0  0
 50133  1  0  0  0  0
 50134  1  0  0  0  0
 51135  1  0  0  0  0
 51136  1  0  0  0  0
 51137  1  0  0  0  0
M  END
> <PUBCHEM_COMPOUND_CID>
11148

> <PUBCHEM_COMPOUND_CANONICALIZED>
1

> <PUBCHEM_CACTVS_COMPLEXITY>
711

> <PUBCHEM_CACTVS_HBOND_ACCEPTOR>
6

> <PUBCHEM_CACTVS_HBOND_DONOR>
0

> <PUBCHEM_CACTVS_ROTATABLE_BOND>
44

> <PUBCHEM_CACTVS_SUBSKEYS>
AAADcfB8OAAAAAAAAAAAAAAAAAAAAAAAAAAAAAAAAAAAAAAAAAAAGgAAAAAACBSggAICCAAABAAIAACQCAAAAAAAAAAAAAEAAAABABIAAAACAAAFAAACAAGIyKCAAAAAAAAAAAAAAAAAAAAAAAAAAAAAAA==

> <PUBCHEM_IUPAC_OPENEYE_NAME>
2,3-di(tetradecanoyloxy)propyl tetradecanoate

> <PUBCHEM_IUPAC_CAS_NAME>
tetradecanoic acid 2,3-bis(1-oxotetradecoxy)propyl ester

> <PUBCHEM_IUPAC_NAME_MARKUP>
2,3-di(tetradecanoyloxy)propyl tetradecanoate

> <PUBCHEM_IUPAC_NAME>
2,3-di(tetradecanoyloxy)propyl tetradecanoate

> <PUBCHEM_IUPAC_SYSTEMATIC_NAME>
2,3-di(tetradecanoyloxy)propyl tetradecanoate

> <PUBCHEM_IUPAC_TRADITIONAL_NAME>
myristic acid 2,3-di(tetradecanoyloxy)propyl ester

> <PUBCHEM_IUPAC_INCHI>
InChI=1S/C45H86O6/c1-4-7-10-13-16-19-22-25-28-31-34-37-43(46)49-40-42(51-45(48)39-36-33-30-27-24-21-18-15-12-9-6-3)41-50-44(47)38-35-32-29-26-23-20-17-14-11-8-5-2/h42H,4-41H2,1-3H3

> <PUBCHEM_IUPAC_INCHIKEY>
DUXYWXYOBMKGIN-UHFFFAOYSA-N

> <PUBCHEM_XLOGP3_AA>
18.7

> <PUBCHEM_EXACT_MASS>
722.64244

> <PUBCHEM_MOLECULAR_FORMULA>
C45H86O6

> <PUBCHEM_MOLECULAR_WEIGHT>
723.2

> <PUBCHEM_OPENEYE_CAN_SMILES>
CCCCCCCCCCCCCC(=O)OCC(COC(=O)CCCCCCCCCCCCC)OC(=O)CCCCCCCCCCCCC

> <PUBCHEM_OPENEYE_ISO_SMILES>
CCCCCCCCCCCCCC(=O)OCC(COC(=O)CCCCCCCCCCCCC)OC(=O)CCCCCCCCCCCCC

> <PUBCHEM_CACTVS_TPSA>
78.9

> <PUBCHEM_MONOISOTOPIC_WEIGHT>
722.64244

> <PUBCHEM_TOTAL_CHARGE>
0

> <PUBCHEM_HEAVY_ATOM_COUNT>
51

> <PUBCHEM_ATOM_DEF_STEREO_COUNT>
0

> <PUBCHEM_ATOM_UDEF_STEREO_COUNT>
0

> <PUBCHEM_BOND_DEF_STEREO_COUNT>
0

> <PUBCHEM_BOND_UDEF_STEREO_COUNT>
0

> <PUBCHEM_ISOTOPIC_ATOM_COUNT>
0

> <PUBCHEM_COMPONENT_COUNT>
1

> <PUBCHEM_CACTVS_TAUTO_COUNT>
-1

> <PUBCHEM_COORDINATE_TYPE>
1
5
255

$$$$
