14237657
  -OEChem-09092010492D

101109  0     1  0  0  0  0  0999 V2000
    9.5412   -3.0214    0.0000 O   0  0  0  0  0  0  0  0  0  0  0  0
    6.7878   -5.8868    0.0000 O   0  0  0  0  0  0  0  0  0  0  0  0
   11.2732   -1.0214    0.0000 O   0  0  0  0  0  0  0  0  0  0  0  0
    5.8158   -3.4260    0.0000 O   0  0  0  0  0  0  0  0  0  0  0  0
    9.5251    3.0201    0.0000 O   0  0  0  0  0  0  0  0  0  0  0  0
    7.1473   -0.2133    0.0000 O   0  0  0  0  0  0  0  0  0  0  0  0
    5.8752   -2.5460    0.0000 O   0  0  0  0  0  0  0  0  0  0  0  0
   11.2732   -0.0214    0.0000 O   0  0  0  0  0  0  0  0  0  0  0  0
    7.6904    0.6523    0.0000 O   0  0  0  0  0  0  0  0  0  0  0  0
   12.1932    3.5237    0.0000 O   0  0  0  0  0  0  0  0  0  0  0  0
    9.8732   -3.8894    0.0000 O   0  0  0  0  0  0  0  0  0  0  0  0
   10.1108   -7.0785    0.0000 O   0  0  0  0  0  0  0  0  0  0  0  0
   12.1393   -5.5214    0.0000 O   0  0  0  0  0  0  0  0  0  0  0  0
   13.8713   -4.5214    0.0000 O   0  0  0  0  0  0  0  0  0  0  0  0
    3.5085   -7.3855    0.0000 O   0  0  0  0  0  0  0  0  0  0  0  0
    2.2053   -5.8683    0.0000 O   0  0  0  0  0  0  0  0  0  0  0  0
   12.1436    6.5545    0.0000 O   0  0  0  0  0  0  0  0  0  0  0  0
   10.4078    7.5479    0.0000 O   0  0  0  0  0  0  0  0  0  0  0  0
    9.5412   -1.0214    0.0000 C   0  0  2  0  0  0  0  0  0  0  0  0
   10.4072   -1.5214    0.0000 C   0  0  2  0  0  0  0  0  0  0  0  0
    7.4501   -3.9996    0.0000 C   0  0  2  0  0  0  0  0  0  0  0  0
    8.6752   -1.5214    0.0000 C   0  0  0  0  0  0  0  0  0  0  0  0
   10.4072   -2.5214    0.0000 C   0  0  1  0  0  0  0  0  0  0  0  0
    7.7812   -3.0560    0.0000 C   0  0  0  0  0  0  0  0  0  0  0  0
    8.6752   -2.5214    0.0000 C   0  0  0  0  0  0  0  0  0  0  0  0
    6.4674   -4.1847    0.0000 C   0  0  2  0  0  0  0  0  0  0  0  0
    9.5412   -0.0214    0.0000 C   0  0  0  0  0  0  0  0  0  0  0  0
    6.1363   -5.1283    0.0000 C   0  0  1  0  0  0  0  0  0  0  0  0
    8.1017   -4.7582    0.0000 C   0  0  0  0  0  0  0  0  0  0  0  0
    7.7812   -0.9867    0.0000 C   0  0  0  0  0  0  0  0  0  0  0  0
    6.8752   -2.5422    0.0000 C   0  0  0  0  0  0  0  0  0  0  0  0
   11.2732   -3.0214    0.0000 C   0  0  0  0  0  0  0  0  0  0  0  0
   10.4072    0.4786    0.0000 C   0  0  0  0  0  0  0  0  0  0  0  0
    7.7706   -5.7018    0.0000 C   0  0  0  0  0  0  0  0  0  0  0  0
   10.4072    1.4786    0.0000 C   0  0  0  0  0  0  0  0  0  0  0  0
    6.8752   -1.5006    0.0000 C   0  0  0  0  0  0  0  0  0  0  0  0
    8.6752    0.4786    0.0000 C   0  0  0  0  0  0  0  0  0  0  0  0
   11.3172    1.9855    0.0000 C   0  0  0  0  0  0  0  0  0  0  0  0
   11.3253    3.0271    0.0000 C   0  0  1  0  0  0  0  0  0  0  0  0
    9.5412    1.9786    0.0000 C   0  0  0  0  0  0  0  0  0  0  0  0
    5.1535   -5.3133    0.0000 C   0  0  0  0  0  0  0  0  0  0  0  0
    9.1222   -4.5497    0.0000 C   0  0  0  0  0  0  0  0  0  0  0  0
   10.4232    3.5479    0.0000 C   0  0  1  0  0  0  0  0  0  0  0  0
    8.6752    1.4786    0.0000 C   0  0  0  0  0  0  0  0  0  0  0  0
    8.4370   -6.5023    0.0000 C   0  0  0  0  0  0  0  0  0  0  0  0
   11.2732   -4.0214    0.0000 C   0  0  0  0  0  0  0  0  0  0  0  0
   12.1393   -2.5214    0.0000 C   0  0  0  0  0  0  0  0  0  0  0  0
    9.8070   -5.3346    0.0000 C   0  0  0  0  0  0  0  0  0  0  0  0
    9.4621   -6.3174    0.0000 C   0  0  0  0  0  0  0  0  0  0  0  0
   10.4193    4.5479    0.0000 C   0  0  0  0  0  0  0  0  0  0  0  0
    4.8224   -6.2569    0.0000 C   0  0  0  0  0  0  0  0  0  0  0  0
    4.5019   -4.5547    0.0000 C   0  0  0  0  0  0  0  0  0  0  0  0
   12.1393   -4.5214    0.0000 C   0  0  0  0  0  0  0  0  0  0  0  0
   13.0053   -3.0214    0.0000 C   0  0  0  0  0  0  0  0  0  0  0  0
   13.0053   -4.0214    0.0000 C   0  0  0  0  0  0  0  0  0  0  0  0
    3.8397   -6.4419    0.0000 C   0  0  0  0  0  0  0  0  0  0  0  0
    3.5192   -4.7397    0.0000 C   0  0  0  0  0  0  0  0  0  0  0  0
   11.2834    5.0512    0.0000 C   0  0  0  0  0  0  0  0  0  0  0  0
    9.5514    5.0445    0.0000 C   0  0  0  0  0  0  0  0  0  0  0  0
    3.1880   -5.6833    0.0000 C   0  0  0  0  0  0  0  0  0  0  0  0
   11.2796    6.0512    0.0000 C   0  0  0  0  0  0  0  0  0  0  0  0
    9.5475    6.0445    0.0000 C   0  0  0  0  0  0  0  0  0  0  0  0
   10.4116    6.5479    0.0000 C   0  0  0  0  0  0  0  0  0  0  0  0
   10.2773   -0.5964    0.0000 H   0  0  0  0  0  0  0  0  0  0  0  0
   10.9442   -1.8314    0.0000 H   0  0  0  0  0  0  0  0  0  0  0  0
    6.8962   -3.3548    0.0000 H   0  0  0  0  0  0  0  0  0  0  0  0
   10.4072   -3.1414    0.0000 H   0  0  0  0  0  0  0  0  0  0  0  0
    5.8581   -4.2994    0.0000 H   0  0  0  0  0  0  0  0  0  0  0  0
    5.9310   -5.7133    0.0000 H   0  0  0  0  0  0  0  0  0  0  0  0
    6.3394   -1.1885    0.0000 H   0  0  0  0  0  0  0  0  0  0  0  0
   11.5218    1.4002    0.0000 H   0  0  0  0  0  0  0  0  0  0  0  0
   11.9289    2.0869    0.0000 H   0  0  0  0  0  0  0  0  0  0  0  0
   11.3264    3.6471    0.0000 H   0  0  0  0  0  0  0  0  0  0  0  0
   11.8102   -1.3314    0.0000 H   0  0  0  0  0  0  0  0  0  0  0  0
   10.9595    3.8589    0.0000 H   0  0  0  0  0  0  0  0  0  0  0  0
    8.1382    1.7886    0.0000 H   0  0  0  0  0  0  0  0  0  0  0  0
    5.2065   -3.5408    0.0000 H   0  0  0  0  0  0  0  0  0  0  0  0
    8.2250   -7.0849    0.0000 H   0  0  0  0  0  0  0  0  0  0  0  0
   10.7363   -4.3314    0.0000 H   0  0  0  0  0  0  0  0  0  0  0  0
   12.1393   -1.9014    0.0000 H   0  0  0  0  0  0  0  0  0  0  0  0
   10.4159   -5.2175    0.0000 H   0  0  0  0  0  0  0  0  0  0  0  0
    6.5356   -0.3139    0.0000 H   0  0  0  0  0  0  0  0  0  0  0  0
    5.2264   -6.7272    0.0000 H   0  0  0  0  0  0  0  0  0  0  0  0
    4.7072   -3.9697    0.0000 H   0  0  0  0  0  0  0  0  0  0  0  0
    5.5631   -2.0102    0.0000 H   0  0  0  0  0  0  0  0  0  0  0  0
   11.8102    0.2886    0.0000 H   0  0  0  0  0  0  0  0  0  0  0  0
    7.4784    1.2350    0.0000 H   0  0  0  0  0  0  0  0  0  0  0  0
   13.5422   -2.7114    0.0000 H   0  0  0  0  0  0  0  0  0  0  0  0
   12.7289    3.2117    0.0000 H   0  0  0  0  0  0  0  0  0  0  0  0
   10.4606   -4.0879    0.0000 H   0  0  0  0  0  0  0  0  0  0  0  0
    3.1152   -4.2694    0.0000 H   0  0  0  0  0  0  0  0  0  0  0  0
   11.8215    4.7433    0.0000 H   0  0  0  0  0  0  0  0  0  0  0  0
    9.0156    4.7325    0.0000 H   0  0  0  0  0  0  0  0  0  0  0  0
    9.9032   -7.6627    0.0000 H   0  0  0  0  0  0  0  0  0  0  0  0
    9.0094    6.3525    0.0000 H   0  0  0  0  0  0  0  0  0  0  0  0
   12.6762   -5.8314    0.0000 H   0  0  0  0  0  0  0  0  0  0  0  0
   14.4083   -4.2114    0.0000 H   0  0  0  0  0  0  0  0  0  0  0  0
    3.9125   -7.8558    0.0000 H   0  0  0  0  0  0  0  0  0  0  0  0
    2.0000   -6.4534    0.0000 H   0  0  0  0  0  0  0  0  0  0  0  0
   12.1413    7.1745    0.0000 H   0  0  0  0  0  0  0  0  0  0  0  0
    9.8696    7.8558    0.0000 H   0  0  0  0  0  0  0  0  0  0  0  0
  1 23  1  0  0  0  0
  1 25  1  0  0  0  0
  2 28  1  0  0  0  0
  2 34  1  0  0  0  0
 20  3  1  1  0  0  0
  3 74  1  0  0  0  0
 26  4  1  6  0  0  0
  4 77  1  0  0  0  0
  5 40  1  0  0  0  0
  5 43  1  0  0  0  0
  6 30  1  0  0  0  0
  6 82  1  0  0  0  0
  7 31  1  0  0  0  0
  7 85  1  0  0  0  0
  8 33  1  0  0  0  0
  8 86  1  0  0  0  0
  9 37  1  0  0  0  0
  9 87  1  0  0  0  0
 39 10  1  1  0  0  0
 10 89  1  0  0  0  0
 11 42  1  0  0  0  0
 11 90  1  0  0  0  0
 12 49  1  0  0  0  0
 12 94  1  0  0  0  0
 13 53  1  0  0  0  0
 13 96  1  0  0  0  0
 14 55  1  0  0  0  0
 14 97  1  0  0  0  0
 15 56  1  0  0  0  0
 15 98  1  0  0  0  0
 16 60  1  0  0  0  0
 16 99  1  0  0  0  0
 17 61  1  0  0  0  0
 17100  1  0  0  0  0
 18 63  1  0  0  0  0
 18101  1  0  0  0  0
 19 20  1  0  0  0  0
 19 22  1  0  0  0  0
 19 27  1  0  0  0  0
 19 64  1  1  0  0  0
 20 23  1  0  0  0  0
 20 65  1  0  0  0  0
 21 24  1  0  0  0  0
 21 26  1  0  0  0  0
 21 29  1  0  0  0  0
 21 66  1  6  0  0  0
 22 25  1  0  0  0  0
 22 30  2  0  0  0  0
 23 32  1  1  0  0  0
 23 67  1  0  0  0  0
 24 25  2  0  0  0  0
 24 31  1  0  0  0  0
 26 28  1  0  0  0  0
 26 68  1  0  0  0  0
 27 33  2  0  0  0  0
 27 37  1  0  0  0  0
 28 41  1  6  0  0  0
 28 69  1  0  0  0  0
 29 34  1  0  0  0  0
 29 42  2  0  0  0  0
 30 36  1  0  0  0  0
 31 36  2  0  0  0  0
 32 46  2  0  0  0  0
 32 47  1  0  0  0  0
 33 35  1  0  0  0  0
 34 45  2  0  0  0  0
 35 38  1  0  0  0  0
 35 40  2  0  0  0  0
 36 70  1  0  0  0  0
 37 44  2  0  0  0  0
 38 39  1  0  0  0  0
 38 71  1  0  0  0  0
 38 72  1  0  0  0  0
 39 43  1  0  0  0  0
 39 73  1  0  0  0  0
 40 44  1  0  0  0  0
 41 51  2  0  0  0  0
 41 52  1  0  0  0  0
 42 48  1  0  0  0  0
 43 50  1  6  0  0  0
 43 75  1  0  0  0  0
 44 76  1  0  0  0  0
 45 49  1  0  0  0  0
 45 78  1  0  0  0  0
 46 53  1  0  0  0  0
 46 79  1  0  0  0  0
 47 54  2  0  0  0  0
 47 80  1  0  0  0  0
 48 49  2  0  0  0  0
 48 81  1  0  0  0  0
 50 58  2  0  0  0  0
 50 59  1  0  0  0  0
 51 56  1  0  0  0  0
 51 83  1  0  0  0  0
 52 57  2  0  0  0  0
 52 84  1  0  0  0  0
 53 55  2  0  0  0  0
 54 55  1  0  0  0  0
 54 88  1  0  0  0  0
 56 60  2  0  0  0  0
 57 60  1  0  0  0  0
 57 91  1  0  0  0  0
 58 61  1  0  0  0  0
 58 92  1  0  0  0  0
 59 62  2  0  0  0  0
 59 93  1  0  0  0  0
 61 63  2  0  0  0  0
 62 63  1  0  0  0  0
 62 95  1  0  0  0  0
M  END
> <PUBCHEM_COMPOUND_CID>
14237657

> <PUBCHEM_COMPOUND_CANONICALIZED>
1

> <PUBCHEM_CACTVS_COMPLEXITY>
1550

> <PUBCHEM_CACTVS_HBOND_ACCEPTOR>
18

> <PUBCHEM_CACTVS_HBOND_DONOR>
15

> <PUBCHEM_CACTVS_ROTATABLE_BOND>
5

> <PUBCHEM_CACTVS_SUBSKEYS>
AAADcfB8PgAAAAAAAAAAAAAAAAAAAAAAAAA0aNGDAAAAAACRVAAAGgAACAAADRSgmAIwBoAABgCAAiBCAAACCAAgIAAIiAAGiIgNNyKGMRqCeCGlwBULuAfA4PwOoAADCAAIQABAAAYQABCAAAAAAAAAAA==

> <PUBCHEM_IUPAC_OPENEYE_NAME>
(2R,3R,4S)-2-(3,4-dihydroxyphenyl)-4-[(2R,3S)-2-(3,4-dihydroxyphenyl)-3,5,7-trihydroxy-chroman-6-yl]-8-[(2R,3R,4R)-2-(3,4-dihydroxyphenyl)-3,5,7-trihydroxy-chroman-4-yl]chromane-3,5,7-triol

> <PUBCHEM_IUPAC_CAS_NAME>
(2R,3R,4S)-2-(3,4-dihydroxyphenyl)-4-[(2R,3S)-2-(3,4-dihydroxyphenyl)-3,5,7-trihydroxy-3,4-dihydro-2H-1-benzopyran-6-yl]-8-[(2R,3R,4R)-2-(3,4-dihydroxyphenyl)-3,5,7-trihydroxy-3,4-dihydro-2H-1-benzopyran-4-yl]-3,4-dihydro-2H-1-benzopyran-3,5,7-triol

> <PUBCHEM_IUPAC_NAME_MARKUP>
(2<I>R</I>,3<I>R</I>,4<I>S</I>)-2-(3,4-dihydroxyphenyl)-4-[(2<I>R</I>,3<I>S</I>)-2-(3,4-dihydroxyphenyl)-3,5,7-trihydroxy-3,4-dihydro-2<I>H</I>-chromen-6-yl]-8-[(2<I>R</I>,3<I>R</I>,4<I>R</I>)-2-(3,4-dihydroxyphenyl)-3,5,7-trihydroxy-3,4-dihydro-2<I>H</I>-chromen-4-yl]-3,4-dihydro-2<I>H</I>-chromene-3,5,7-triol

> <PUBCHEM_IUPAC_NAME>
(2R,3R,4S)-2-(3,4-dihydroxyphenyl)-4-[(2R,3S)-2-(3,4-dihydroxyphenyl)-3,5,7-trihydroxy-3,4-dihydro-2H-chromen-6-yl]-8-[(2R,3R,4R)-2-(3,4-dihydroxyphenyl)-3,5,7-trihydroxy-3,4-dihydro-2H-chromen-4-yl]-3,4-dihydro-2H-chromene-3,5,7-triol

> <PUBCHEM_IUPAC_SYSTEMATIC_NAME>
(2R,3R,4S)-2-[3,4-bis(oxidanyl)phenyl]-4-[(2R,3S)-2-[3,4-bis(oxidanyl)phenyl]-3,5,7-tris(oxidanyl)-3,4-dihydro-2H-chromen-6-yl]-8-[(2R,3R,4R)-2-[3,4-bis(oxidanyl)phenyl]-3,5,7-tris(oxidanyl)-3,4-dihydro-2H-chromen-4-yl]-3,4-dihydro-2H-chromene-3,5,7-triol

> <PUBCHEM_IUPAC_TRADITIONAL_NAME>
(2R,3R,4S)-2-(3,4-dihydroxyphenyl)-4-[(2R,3S)-2-(3,4-dihydroxyphenyl)-3,5,7-trihydroxy-chroman-6-yl]-8-[(2R,3R,4R)-2-(3,4-dihydroxyphenyl)-3,5,7-trihydroxy-chroman-4-yl]chroman-3,5,7-triol

> <PUBCHEM_IUPAC_INCHI>
InChI=1S/C45H38O18/c46-18-10-26(53)33-32(11-18)62-43(16-2-5-21(48)24(51)8-16)40(59)37(33)35-27(54)13-28(55)36-38(41(60)44(63-45(35)36)17-3-6-22(49)25(52)9-17)34-29(56)14-31-19(39(34)58)12-30(57)42(61-31)15-1-4-20(47)23(50)7-15/h1-11,13-14,30,37-38,40-44,46-60H,12H2/t30-,37+,38-,40+,41+,42+,43+,44+/m0/s1

> <PUBCHEM_IUPAC_INCHIKEY>
PBYRKMXDROOXMU-XKDUFCMJSA-N

> <PUBCHEM_XLOGP3_AA>
3.3

> <PUBCHEM_EXACT_MASS>
866.205814

> <PUBCHEM_MOLECULAR_FORMULA>
C45H38O18

> <PUBCHEM_MOLECULAR_WEIGHT>
866.8

> <PUBCHEM_OPENEYE_CAN_SMILES>
C1C(C(OC2=C1C(=C(C(=C2)O)C3C(C(OC4=C(C(=CC(=C34)O)O)C5C(C(OC6=CC(=CC(=C56)O)O)C7=CC(=C(C=C7)O)O)O)C8=CC(=C(C=C8)O)O)O)O)C9=CC(=C(C=C9)O)O)O

> <PUBCHEM_OPENEYE_ISO_SMILES>
C1[C@@H]([C@H](OC2=C1C(=C(C(=C2)O)[C@@H]3[C@H]([C@H](OC4=C(C(=CC(=C34)O)O)[C@@H]5[C@H]([C@H](OC6=CC(=CC(=C56)O)O)C7=CC(=C(C=C7)O)O)O)C8=CC(=C(C=C8)O)O)O)O)C9=CC(=C(C=C9)O)O)O

> <PUBCHEM_CACTVS_TPSA>
331

> <PUBCHEM_MONOISOTOPIC_WEIGHT>
866.205814

> <PUBCHEM_TOTAL_CHARGE>
0

> <PUBCHEM_HEAVY_ATOM_COUNT>
63

> <PUBCHEM_ATOM_DEF_STEREO_COUNT>
8

> <PUBCHEM_ATOM_UDEF_STEREO_COUNT>
0

> <PUBCHEM_BOND_DEF_STEREO_COUNT>
0

> <PUBCHEM_BOND_UDEF_STEREO_COUNT>
0

> <PUBCHEM_ISOTOPIC_ATOM_COUNT>
0

> <PUBCHEM_COMPONENT_COUNT>
1

> <PUBCHEM_CACTVS_TAUTO_COUNT>
-1

> <PUBCHEM_COORDINATE_TYPE>
1
5
255

> <PUBCHEM_BONDANNOTATIONS>
39  10  5
19  64  5
21  66  6
22  25  8
22  30  8
23  32  5
24  25  8
24  31  8
27  33  8
27  37  8
28  41  6
29  34  8
29  42  8
20  3  5
30  36  8
31  36  8
32  46  8
32  47  8
33  35  8
34  45  8
35  40  8
37  44  8
26  4  6
40  44  8
41  51  8
41  52  8
42  48  8
43  50  6
45  49  8
46  53  8
47  54  8
48  49  8
50  58  8
50  59  8
51  56  8
52  57  8
53  55  8
54  55  8
56  60  8
57  60  8
58  61  8
59  62  8
61  63  8
62  63  8

$$$$
