161739
  -OEChem-09032006032D

128132  0     1  0  0  0  0  0999 V2000
   15.8563   -2.6896    0.0000 O   0  0  0  0  0  0  0  0  0  0  0  0
   14.9961   -1.1862    0.0000 O   0  0  0  0  0  0  0  0  0  0  0  0
   20.3834   -1.1372    0.0000 C   0  0  1  0  0  0  0  0  0  0  0  0
   21.2494   -0.6372    0.0000 C   0  0  1  0  0  0  0  0  0  0  0  0
   19.5173   -0.6372    0.0000 C   0  0  1  0  0  0  0  0  0  0  0  0
   21.2494    0.3628    0.0000 C   0  0  1  0  0  0  0  0  0  0  0  0
   18.6073   -1.1441    0.0000 C   0  0  2  0  0  0  0  0  0  0  0  0
   22.1433    0.8974    0.0000 C   0  0  2  0  0  0  0  0  0  0  0  0
   23.0494    0.3836    0.0000 C   0  0  1  0  0  0  0  0  0  0  0  0
   18.5993   -2.1857    0.0000 C   0  0  1  0  0  0  0  0  0  0  0  0
   22.1433   -1.1719    0.0000 C   0  0  0  0  0  0  0  0  0  0  0  0
   20.3994   -2.1788    0.0000 C   0  0  0  0  0  0  0  0  0  0  0  0
   19.5173    0.3628    0.0000 C   0  0  0  0  0  0  0  0  0  0  0  0
   20.3834    0.8628    0.0000 C   0  0  0  0  0  0  0  0  0  0  0  0
   23.0494   -0.6581    0.0000 C   0  0  0  0  0  0  0  0  0  0  0  0
   19.5014   -2.7065    0.0000 C   0  0  0  0  0  0  0  0  0  0  0  0
   22.3534    1.9113    0.0000 C   0  0  1  0  0  0  0  0  0  0  0  0
   17.6639   -2.7354    0.0000 C   0  0  0  0  0  0  0  0  0  0  0  0
   17.6805   -0.5800    0.0000 C   0  0  0  0  0  0  0  0  0  0  0  0
   21.0261   -1.9033    0.0000 C   0  0  0  0  0  0  0  0  0  0  0  0
   21.5915   -1.5769    0.0000 C   0  0  0  0  0  0  0  0  0  0  0  0
   23.8117    1.0843    0.0000 C   0  0  0  0  0  0  0  0  0  0  0  0
   23.3825    2.0266    0.0000 C   0  0  0  0  0  0  0  0  0  0  0  0
   18.6150   -0.1441    0.0000 C   0  0  0  0  0  0  0  0  0  0  0  0
   16.7242   -2.1929    0.0000 C   0  0  2  0  0  0  0  0  0  0  0  0
   16.7326   -1.1080    0.0000 C   0  0  0  0  0  0  0  0  0  0  0  0
   23.9193   -0.1097    0.0000 C   0  0  0  0  0  0  0  0  0  0  0  0
   17.1672   -3.6034    0.0000 C   0  0  0  0  0  0  0  0  0  0  0  0
   18.1672   -3.5995    0.0000 C   0  0  0  0  0  0  0  0  0  0  0  0
   21.6799    2.6505    0.0000 C   0  0  0  0  0  0  0  0  0  0  0  0
   21.9832    3.6034    0.0000 C   0  0  0  0  0  0  0  0  0  0  0  0
   20.7030    2.4367    0.0000 C   0  0  0  0  0  0  0  0  0  0  0  0
   14.9922   -2.1862    0.0000 C   0  0  0  0  0  0  0  0  0  0  0  0
   14.1243   -2.6829    0.0000 C   0  0  0  0  0  0  0  0  0  0  0  0
   13.2602   -2.1796    0.0000 C   0  0  0  0  0  0  0  0  0  0  0  0
   12.3922   -2.6762    0.0000 C   0  0  0  0  0  0  0  0  0  0  0  0
   11.5281   -2.1729    0.0000 C   0  0  0  0  0  0  0  0  0  0  0  0
   10.6602   -2.6696    0.0000 C   0  0  0  0  0  0  0  0  0  0  0  0
    9.7961   -2.1662    0.0000 C   0  0  0  0  0  0  0  0  0  0  0  0
    8.9282   -2.6629    0.0000 C   0  0  0  0  0  0  0  0  0  0  0  0
    8.0641   -2.1595    0.0000 C   0  0  0  0  0  0  0  0  0  0  0  0
    7.1961   -2.6562    0.0000 C   0  0  0  0  0  0  0  0  0  0  0  0
    6.3320   -2.1529    0.0000 C   0  0  0  0  0  0  0  0  0  0  0  0
    5.4641   -2.6495    0.0000 C   0  0  0  0  0  0  0  0  0  0  0  0
    4.6000   -2.1462    0.0000 C   0  0  0  0  0  0  0  0  0  0  0  0
    3.7320   -2.6428    0.0000 C   0  0  0  0  0  0  0  0  0  0  0  0
    2.8680   -2.1395    0.0000 C   0  0  0  0  0  0  0  0  0  0  0  0
    2.0000   -2.6362    0.0000 C   0  0  0  0  0  0  0  0  0  0  0  0
   20.2535   -0.2122    0.0000 H   0  0  0  0  0  0  0  0  0  0  0  0
   21.2428    1.2127    0.0000 H   0  0  0  0  0  0  0  0  0  0  0  0
   21.4506    1.3900    0.0000 H   0  0  0  0  0  0  0  0  0  0  0  0
   18.6026   -3.0357    0.0000 H   0  0  0  0  0  0  0  0  0  0  0  0
   21.7387   -1.6417    0.0000 H   0  0  0  0  0  0  0  0  0  0  0  0
   22.5370   -1.6509    0.0000 H   0  0  0  0  0  0  0  0  0  0  0  0
   20.6175   -2.7592    0.0000 H   0  0  0  0  0  0  0  0  0  0  0  0
   21.0086   -2.0632    0.0000 H   0  0  0  0  0  0  0  0  0  0  0  0
   19.3053    0.9454    0.0000 H   0  0  0  0  0  0  0  0  0  0  0  0
   18.9068    0.2551    0.0000 H   0  0  0  0  0  0  0  0  0  0  0  0
   20.7819    1.3377    0.0000 H   0  0  0  0  0  0  0  0  0  0  0  0
   19.9848    1.3377    0.0000 H   0  0  0  0  0  0  0  0  0  0  0  0
   23.2585   -1.2418    0.0000 H   0  0  0  0  0  0  0  0  0  0  0  0
   23.6603   -0.5520    0.0000 H   0  0  0  0  0  0  0  0  0  0  0  0
   19.1041   -3.1825    0.0000 H   0  0  0  0  0  0  0  0  0  0  0  0
   19.9023   -3.1794    0.0000 H   0  0  0  0  0  0  0  0  0  0  0  0
   22.5719    2.4916    0.0000 H   0  0  0  0  0  0  0  0  0  0  0  0
   18.0887   -0.1134    0.0000 H   0  0  0  0  0  0  0  0  0  0  0  0
   17.2906   -0.0980    0.0000 H   0  0  0  0  0  0  0  0  0  0  0  0
   20.5512   -2.3018    0.0000 H   0  0  0  0  0  0  0  0  0  0  0  0
   21.4247   -2.3782    0.0000 H   0  0  0  0  0  0  0  0  0  0  0  0
   21.5011   -1.5048    0.0000 H   0  0  0  0  0  0  0  0  0  0  0  0
   21.0089   -1.7890    0.0000 H   0  0  0  0  0  0  0  0  0  0  0  0
   21.8036   -2.1595    0.0000 H   0  0  0  0  0  0  0  0  0  0  0  0
   22.1741   -1.3648    0.0000 H   0  0  0  0  0  0  0  0  0  0  0  0
   24.1810    0.5863    0.0000 H   0  0  0  0  0  0  0  0  0  0  0  0
   24.3458    1.3992    0.0000 H   0  0  0  0  0  0  0  0  0  0  0  0
   23.9706    2.2229    0.0000 H   0  0  0  0  0  0  0  0  0  0  0  0
   23.2491    2.6321    0.0000 H   0  0  0  0  0  0  0  0  0  0  0  0
   19.2350   -0.1489    0.0000 H   0  0  0  0  0  0  0  0  0  0  0  0
   18.6198    0.4759    0.0000 H   0  0  0  0  0  0  0  0  0  0  0  0
   17.9951   -0.1393    0.0000 H   0  0  0  0  0  0  0  0  0  0  0  0
   16.1891   -1.8798    0.0000 H   0  0  0  0  0  0  0  0  0  0  0  0
   16.5281   -0.5227    0.0000 H   0  0  0  0  0  0  0  0  0  0  0  0
   16.1210   -1.2093    0.0000 H   0  0  0  0  0  0  0  0  0  0  0  0
   23.6134   -0.6490    0.0000 H   0  0  0  0  0  0  0  0  0  0  0  0
   24.4586   -0.4156    0.0000 H   0  0  0  0  0  0  0  0  0  0  0  0
   24.2251    0.4296    0.0000 H   0  0  0  0  0  0  0  0  0  0  0  0
   16.6291   -3.2954    0.0000 H   0  0  0  0  0  0  0  0  0  0  0  0
   16.8593   -4.1415    0.0000 H   0  0  0  0  0  0  0  0  0  0  0  0
   17.7054   -3.9113    0.0000 H   0  0  0  0  0  0  0  0  0  0  0  0
   17.6315   -3.9116    0.0000 H   0  0  0  0  0  0  0  0  0  0  0  0
   18.4793   -4.1352    0.0000 H   0  0  0  0  0  0  0  0  0  0  0  0
   18.7030   -3.2874    0.0000 H   0  0  0  0  0  0  0  0  0  0  0  0
   22.5740    3.4153    0.0000 H   0  0  0  0  0  0  0  0  0  0  0  0
   22.1713    4.1941    0.0000 H   0  0  0  0  0  0  0  0  0  0  0  0
   21.3924    3.7914    0.0000 H   0  0  0  0  0  0  0  0  0  0  0  0
   20.2854    2.8950    0.0000 H   0  0  0  0  0  0  0  0  0  0  0  0
   20.5149    1.8459    0.0000 H   0  0  0  0  0  0  0  0  0  0  0  0
   13.7239   -3.1563    0.0000 H   0  0  0  0  0  0  0  0  0  0  0  0
   14.5210   -3.1594    0.0000 H   0  0  0  0  0  0  0  0  0  0  0  0
   13.6605   -1.7062    0.0000 H   0  0  0  0  0  0  0  0  0  0  0  0
   12.8635   -1.7031    0.0000 H   0  0  0  0  0  0  0  0  0  0  0  0
   11.9919   -3.1496    0.0000 H   0  0  0  0  0  0  0  0  0  0  0  0
   12.7889   -3.1527    0.0000 H   0  0  0  0  0  0  0  0  0  0  0  0
   11.9285   -1.6995    0.0000 H   0  0  0  0  0  0  0  0  0  0  0  0
   11.1314   -1.6964    0.0000 H   0  0  0  0  0  0  0  0  0  0  0  0
   10.2598   -3.1430    0.0000 H   0  0  0  0  0  0  0  0  0  0  0  0
   11.0569   -3.1460    0.0000 H   0  0  0  0  0  0  0  0  0  0  0  0
   10.1965   -1.6928    0.0000 H   0  0  0  0  0  0  0  0  0  0  0  0
    9.3994   -1.6897    0.0000 H   0  0  0  0  0  0  0  0  0  0  0  0
    8.5278   -3.1363    0.0000 H   0  0  0  0  0  0  0  0  0  0  0  0
    9.3248   -3.1394    0.0000 H   0  0  0  0  0  0  0  0  0  0  0  0
    8.4644   -1.6861    0.0000 H   0  0  0  0  0  0  0  0  0  0  0  0
    7.6674   -1.6831    0.0000 H   0  0  0  0  0  0  0  0  0  0  0  0
    6.7958   -3.1296    0.0000 H   0  0  0  0  0  0  0  0  0  0  0  0
    7.5928   -3.1327    0.0000 H   0  0  0  0  0  0  0  0  0  0  0  0
    6.7324   -1.6794    0.0000 H   0  0  0  0  0  0  0  0  0  0  0  0
    5.9353   -1.6764    0.0000 H   0  0  0  0  0  0  0  0  0  0  0  0
    5.0637   -3.1229    0.0000 H   0  0  0  0  0  0  0  0  0  0  0  0
    5.8608   -3.1260    0.0000 H   0  0  0  0  0  0  0  0  0  0  0  0
    5.0003   -1.6728    0.0000 H   0  0  0  0  0  0  0  0  0  0  0  0
    4.2033   -1.6697    0.0000 H   0  0  0  0  0  0  0  0  0  0  0  0
    3.3317   -3.1162    0.0000 H   0  0  0  0  0  0  0  0  0  0  0  0
    4.1287   -3.1193    0.0000 H   0  0  0  0  0  0  0  0  0  0  0  0
    3.2683   -1.6661    0.0000 H   0  0  0  0  0  0  0  0  0  0  0  0
    2.4712   -1.6630    0.0000 H   0  0  0  0  0  0  0  0  0  0  0  0
    1.6921   -2.0980    0.0000 H   0  0  0  0  0  0  0  0  0  0  0  0
    1.4619   -2.9441    0.0000 H   0  0  0  0  0  0  0  0  0  0  0  0
    2.3079   -3.1743    0.0000 H   0  0  0  0  0  0  0  0  0  0  0  0
 25  1  1  1  0  0  0
  1 33  1  0  0  0  0
  2 33  2  0  0  0  0
  3  4  1  0  0  0  0
  3  5  1  0  0  0  0
  3 12  1  0  0  0  0
  3 20  1  1  0  0  0
  4  6  1  0  0  0  0
  4 11  1  0  0  0  0
  4 21  1  6  0  0  0
  5  7  1  0  0  0  0
  5 13  1  0  0  0  0
  5 49  1  6  0  0  0
  6  8  1  0  0  0  0
  6 14  1  0  0  0  0
  6 50  1  1  0  0  0
  7 10  1  0  0  0  0
  7 19  1  0  0  0  0
  7 24  1  1  0  0  0
  8  9  1  0  0  0  0
  8 17  1  0  0  0  0
  8 51  1  6  0  0  0
  9 15  1  0  0  0  0
  9 22  1  0  0  0  0
  9 27  1  1  0  0  0
 10 16  1  0  0  0  0
 10 18  1  0  0  0  0
 10 52  1  6  0  0  0
 11 15  1  0  0  0  0
 11 53  1  0  0  0  0
 11 54  1  0  0  0  0
 12 16  1  0  0  0  0
 12 55  1  0  0  0  0
 12 56  1  0  0  0  0
 13 14  1  0  0  0  0
 13 57  1  0  0  0  0
 13 58  1  0  0  0  0
 14 59  1  0  0  0  0
 14 60  1  0  0  0  0
 15 61  1  0  0  0  0
 15 62  1  0  0  0  0
 16 63  1  0  0  0  0
 16 64  1  0  0  0  0
 17 23  1  0  0  0  0
 17 30  1  6  0  0  0
 17 65  1  0  0  0  0
 18 25  1  0  0  0  0
 18 28  1  0  0  0  0
 18 29  1  0  0  0  0
 19 26  1  0  0  0  0
 19 66  1  0  0  0  0
 19 67  1  0  0  0  0
 20 68  1  0  0  0  0
 20 69  1  0  0  0  0
 20 70  1  0  0  0  0
 21 71  1  0  0  0  0
 21 72  1  0  0  0  0
 21 73  1  0  0  0  0
 22 23  1  0  0  0  0
 22 74  1  0  0  0  0
 22 75  1  0  0  0  0
 23 76  1  0  0  0  0
 23 77  1  0  0  0  0
 24 78  1  0  0  0  0
 24 79  1  0  0  0  0
 24 80  1  0  0  0  0
 25 26  1  0  0  0  0
 25 81  1  0  0  0  0
 26 82  1  0  0  0  0
 26 83  1  0  0  0  0
 27 84  1  0  0  0  0
 27 85  1  0  0  0  0
 27 86  1  0  0  0  0
 28 87  1  0  0  0  0
 28 88  1  0  0  0  0
 28 89  1  0  0  0  0
 29 90  1  0  0  0  0
 29 91  1  0  0  0  0
 29 92  1  0  0  0  0
 30 31  1  0  0  0  0
 30 32  2  0  0  0  0
 31 93  1  0  0  0  0
 31 94  1  0  0  0  0
 31 95  1  0  0  0  0
 32 96  1  0  0  0  0
 32 97  1  0  0  0  0
 33 34  1  0  0  0  0
 34 35  1  0  0  0  0
 34 98  1  0  0  0  0
 34 99  1  0  0  0  0
 35 36  1  0  0  0  0
 35100  1  0  0  0  0
 35101  1  0  0  0  0
 36 37  1  0  0  0  0
 36102  1  0  0  0  0
 36103  1  0  0  0  0
 37 38  1  0  0  0  0
 37104  1  0  0  0  0
 37105  1  0  0  0  0
 38 39  1  0  0  0  0
 38106  1  0  0  0  0
 38107  1  0  0  0  0
 39 40  1  0  0  0  0
 39108  1  0  0  0  0
 39109  1  0  0  0  0
 40 41  1  0  0  0  0
 40110  1  0  0  0  0
 40111  1  0  0  0  0
 41 42  1  0  0  0  0
 41112  1  0  0  0  0
 41113  1  0  0  0  0
 42 43  1  0  0  0  0
 42114  1  0  0  0  0
 42115  1  0  0  0  0
 43 44  1  0  0  0  0
 43116  1  0  0  0  0
 43117  1  0  0  0  0
 44 45  1  0  0  0  0
 44118  1  0  0  0  0
 44119  1  0  0  0  0
 45 46  1  0  0  0  0
 45120  1  0  0  0  0
 45121  1  0  0  0  0
 46 47  1  0  0  0  0
 46122  1  0  0  0  0
 46123  1  0  0  0  0
 47 48  1  0  0  0  0
 47124  1  0  0  0  0
 47125  1  0  0  0  0
 48126  1  0  0  0  0
 48127  1  0  0  0  0
 48128  1  0  0  0  0
M  END
> <PUBCHEM_COMPOUND_CID>
161739

> <PUBCHEM_COMPOUND_CANONICALIZED>
1

> <PUBCHEM_CACTVS_COMPLEXITY>
1090

> <PUBCHEM_CACTVS_HBOND_ACCEPTOR>
2

> <PUBCHEM_CACTVS_HBOND_DONOR>
0

> <PUBCHEM_CACTVS_ROTATABLE_BOND>
17

> <PUBCHEM_CACTVS_SUBSKEYS>
AAADcfB8MAAAAAAAAAAAAAAAAAAAAYAAAAAwYMGAAAAAAGDAAAAAGgAAAAAADxSggAICCAAABACIAgDSCAAAAAAgAAAAAAEAAAgAABIAAQACAAAEgAAAAAGIyPCPgAAAAAAAAADAAAYAADAAAQAACAAAAA==

> <PUBCHEM_IUPAC_OPENEYE_NAME>
[(1R,3aR,5aR,5bR,7aR,9S,11aR,11bR,13aR,13bR)-1-isopropenyl-3a,5a,5b,8,8,11a-hexamethyl-1,2,3,4,5,6,7,7a,9,10,11,11b,12,13,13a,13b-hexadecahydrocyclopenta[a]chrysen-9-yl] hexadecanoate

> <PUBCHEM_IUPAC_CAS_NAME>
hexadecanoic acid [(1R,3aR,5aR,5bR,7aR,9S,11aR,11bR,13aR,13bR)-3a,5a,5b,8,8,11a-hexamethyl-1-(1-methylethenyl)-1,2,3,4,5,6,7,7a,9,10,11,11b,12,13,13a,13b-hexadecahydrocyclopenta[a]chrysen-9-yl] ester

> <PUBCHEM_IUPAC_NAME_MARKUP>
[(1<I>R</I>,3<I>a</I><I>R</I>,5<I>a</I><I>R</I>,5<I>b</I><I>R</I>,7<I>a</I><I>R</I>,9<I>S</I>,11<I>a</I><I>R</I>,11<I>b</I><I>R</I>,13<I>a</I><I>R</I>,13<I>b</I><I>R</I>)-3<I>a</I>,5<I>a</I>,5<I>b</I>,8,8,11<I>a</I>-hexamethyl-1-prop-1-en-2-yl-1,2,3,4,5,6,7,7<I>a</I>,9,10,11,11<I>b</I>,12,13,13<I>a</I>,13<I>b</I>-hexadecahydrocyclopenta[a]chrysen-9-yl] hexadecanoate

> <PUBCHEM_IUPAC_NAME>
[(1R,3aR,5aR,5bR,7aR,9S,11aR,11bR,13aR,13bR)-3a,5a,5b,8,8,11a-hexamethyl-1-prop-1-en-2-yl-1,2,3,4,5,6,7,7a,9,10,11,11b,12,13,13a,13b-hexadecahydrocyclopenta[a]chrysen-9-yl] hexadecanoate

> <PUBCHEM_IUPAC_SYSTEMATIC_NAME>
[(1R,3aR,5aR,5bR,7aR,9S,11aR,11bR,13aR,13bR)-3a,5a,5b,8,8,11a-hexamethyl-1-prop-1-en-2-yl-1,2,3,4,5,6,7,7a,9,10,11,11b,12,13,13a,13b-hexadecahydrocyclopenta[a]chrysen-9-yl] hexadecanoate

> <PUBCHEM_IUPAC_TRADITIONAL_NAME>
palmitic acid [(1R,3aR,5aR,5bR,7aR,9S,11aR,11bR,13aR,13bR)-1-isopropenyl-3a,5a,5b,8,8,11a-hexamethyl-1,2,3,4,5,6,7,7a,9,10,11,11b,12,13,13a,13b-hexadecahydrocyclopenta[a]chrysen-9-yl] ester

> <PUBCHEM_IUPAC_INCHI>
InChI=1S/C46H80O2/c1-10-11-12-13-14-15-16-17-18-19-20-21-22-23-40(47)48-39-28-30-44(7)37(42(39,4)5)27-31-46(9)38(44)25-24-36-41-35(34(2)3)26-29-43(41,6)32-33-45(36,46)8/h35-39,41H,2,10-33H2,1,3-9H3/t35-,36+,37-,38+,39-,41+,43+,44-,45+,46+/m0/s1

> <PUBCHEM_IUPAC_INCHIKEY>
BWXDHBQGBNPJMN-VBHWJLTNSA-N

> <PUBCHEM_XLOGP3_AA>
17.8

> <PUBCHEM_EXACT_MASS>
664.615832

> <PUBCHEM_MOLECULAR_FORMULA>
C46H80O2

> <PUBCHEM_MOLECULAR_WEIGHT>
665.1

> <PUBCHEM_OPENEYE_CAN_SMILES>
CCCCCCCCCCCCCCCC(=O)OC1CCC2(C3CCC4C5C(CCC5(CCC4(C3(CCC2C1(C)C)C)C)C)C(=C)C)C

> <PUBCHEM_OPENEYE_ISO_SMILES>
CCCCCCCCCCCCCCCC(=O)O[C@H]1CC[C@@]2([C@H]3CC[C@@H]4[C@H]5[C@@H](CC[C@@]5(CC[C@]4([C@@]3(CC[C@H]2C1(C)C)C)C)C)C(=C)C)C

> <PUBCHEM_CACTVS_TPSA>
26.3

> <PUBCHEM_MONOISOTOPIC_WEIGHT>
664.615832

> <PUBCHEM_TOTAL_CHARGE>
0

> <PUBCHEM_HEAVY_ATOM_COUNT>
48

> <PUBCHEM_ATOM_DEF_STEREO_COUNT>
10

> <PUBCHEM_ATOM_UDEF_STEREO_COUNT>
0

> <PUBCHEM_BOND_DEF_STEREO_COUNT>
0

> <PUBCHEM_BOND_UDEF_STEREO_COUNT>
0

> <PUBCHEM_ISOTOPIC_ATOM_COUNT>
0

> <PUBCHEM_COMPONENT_COUNT>
1

> <PUBCHEM_CACTVS_TAUTO_COUNT>
-1

> <PUBCHEM_COORDINATE_TYPE>
1
5
255

> <PUBCHEM_BONDANNOTATIONS>
25  1  5
10  52  6
17  30  6
3  20  5
4  21  6
5  49  6
6  50  5
7  24  5
8  51  6
9  27  5

$$$$
