12085802
  -OEChem-09032010522D

137141  0     1  0  0  0  0  0999 V2000
    6.6129   -0.1191    0.0000 Mg  0  2  0  0  0  0  0  0  0  0  0  0
    8.0110   -4.4966    0.0000 O   0  0  0  0  0  0  0  0  0  0  0  0
   10.3151   -3.6030    0.0000 O   0  0  0  0  0  0  0  0  0  0  0  0
   10.5207   -1.8832    0.0000 O   0  0  0  0  0  0  0  0  0  0  0  0
   13.0207   -0.9662    0.0000 O   0  0  0  0  0  0  0  0  0  0  0  0
   11.9780   -2.3492    0.0000 O   0  0  0  0  0  0  0  0  0  0  0  0
    8.0994   -0.0924    0.0000 N   0  0  0  0  0  0  0  0  0  0  0  0
    6.6504   -1.4139    0.0000 N   0  5  0  0  0  0  0  0  0  0  0  0
    6.6181    1.2290    0.0000 N   0  5  0  0  0  0  0  0  0  0  0  0
    5.1995   -0.0924    0.0000 N   0  0  0  0  0  0  0  0  0  0  0  0
    9.5825   -0.5432    0.0000 C   0  0  1  0  0  0  0  0  0  0  0  0
    9.5825    0.4228    0.0000 C   0  0  1  0  0  0  0  0  0  0  0  0
    8.6794   -0.8017    0.0000 C   0  0  0  0  0  0  0  0  0  0  0  0
    8.3903   -1.7355    0.0000 C   0  0  0  0  0  0  0  0  0  0  0  0
   10.3810   -1.1452    0.0000 C   0  0  0  0  0  0  0  0  0  0  0  0
    7.4242   -1.9940    0.0000 C   0  0  0  0  0  0  0  0  0  0  0  0
    8.9285   -2.5650    0.0000 C   0  0  2  0  0  0  0  0  0  0  0  0
    8.6471    0.6814    0.0000 C   0  0  0  0  0  0  0  0  0  0  0  0
    7.1334   -2.9278    0.0000 C   0  0  0  0  0  0  0  0  0  0  0  0
    7.9404   -3.4991    0.0000 C   0  0  0  0  0  0  0  0  0  0  0  0
   10.3783    1.0284    0.0000 C   0  0  0  0  0  0  0  0  0  0  0  0
    6.1672   -2.9278    0.0000 C   0  0  0  0  0  0  0  0  0  0  0  0
    5.8764   -2.0263    0.0000 C   0  0  0  0  0  0  0  0  0  0  0  0
   11.3016   -0.7547    0.0000 C   0  0  0  0  0  0  0  0  0  0  0  0
    8.3579    1.5829    0.0000 C   0  0  0  0  0  0  0  0  0  0  0  0
    7.4242    1.8737    0.0000 C   0  0  0  0  0  0  0  0  0  0  0  0
    9.9214   -2.6837    0.0000 C   0  0  0  0  0  0  0  0  0  0  0  0
    7.1011    2.7752    0.0000 C   0  0  0  0  0  0  0  0  0  0  0  0
    5.5786   -3.7362    0.0000 C   0  0  0  0  0  0  0  0  0  0  0  0
    5.8442    1.8414    0.0000 C   0  0  0  0  0  0  0  0  0  0  0  0
    4.9426   -1.7355    0.0000 C   0  0  0  0  0  0  0  0  0  0  0  0
    6.1350    2.7752    0.0000 C   0  0  0  0  0  0  0  0  0  0  0  0
   12.1001   -1.3567    0.0000 C   0  0  0  0  0  0  0  0  0  0  0  0
   22.4146   -2.6256    0.0000 C   0  0  1  0  0  0  0  0  0  0  0  0
    4.6519   -0.8340    0.0000 C   0  0  0  0  0  0  0  0  0  0  0  0
   21.6161   -2.0236    0.0000 C   0  0  0  0  0  0  0  0  0  0  0  0
   18.9764   -2.2026    0.0000 C   0  0  2  0  0  0  0  0  0  0  0  0
   20.6955   -2.4141    0.0000 C   0  0  0  0  0  0  0  0  0  0  0  0
   19.8970   -1.8121    0.0000 C   0  0  0  0  0  0  0  0  0  0  0  0
    4.9104    1.5829    0.0000 C   0  0  0  0  0  0  0  0  0  0  0  0
   23.3352   -2.2351    0.0000 C   0  0  0  0  0  0  0  0  0  0  0  0
    3.7182   -0.5754    0.0000 C   0  0  0  0  0  0  0  0  0  0  0  0
    4.6519    0.6490    0.0000 C   0  0  0  0  0  0  0  0  0  0  0  0
    7.6767    3.5929    0.0000 C   0  0  0  0  0  0  0  0  0  0  0  0
   18.1779   -1.6006    0.0000 C   0  0  0  0  0  0  0  0  0  0  0  0
    3.7182    0.3906    0.0000 C   0  0  0  0  0  0  0  0  0  0  0  0
   24.1337   -2.8371    0.0000 C   0  0  0  0  0  0  0  0  0  0  0  0
   17.2573   -1.9911    0.0000 C   0  0  0  0  0  0  0  0  0  0  0  0
    5.5423    3.5806    0.0000 C   0  0  0  0  0  0  0  0  0  0  0  0
   25.0543   -2.4466    0.0000 C   0  0  0  0  0  0  0  0  0  0  0  0
   22.2925   -3.6181    0.0000 C   0  0  0  0  0  0  0  0  0  0  0  0
   18.8543   -3.1952    0.0000 C   0  0  0  0  0  0  0  0  0  0  0  0
    2.9223   -1.1809    0.0000 C   0  0  0  0  0  0  0  0  0  0  0  0
   25.8528   -3.0486    0.0000 C   0  0  0  0  0  0  0  0  0  0  0  0
   16.4588   -1.3891    0.0000 C   0  0  0  0  0  0  0  0  0  0  0  0
   11.3080   -3.7217    0.0000 C   0  0  0  0  0  0  0  0  0  0  0  0
    2.9223    0.9961    0.0000 C   0  0  0  0  0  0  0  0  0  0  0  0
   13.8192   -1.5682    0.0000 C   0  0  0  0  0  0  0  0  0  0  0  0
   15.5382   -1.7797    0.0000 C   0  0  0  0  0  0  0  0  0  0  0  0
   14.7397   -1.1777    0.0000 C   0  0  0  0  0  0  0  0  0  0  0  0
    2.0000   -0.7944    0.0000 C   0  0  0  0  0  0  0  0  0  0  0  0
   26.7734   -2.6580    0.0000 C   0  0  0  0  0  0  0  0  0  0  0  0
   25.7307   -4.0411    0.0000 C   0  0  0  0  0  0  0  0  0  0  0  0
    5.9434    4.4966    0.0000 C   0  0  0  0  0  0  0  0  0  0  0  0
   15.4161   -2.7722    0.0000 C   0  0  0  0  0  0  0  0  0  0  0  0
    9.4693   -1.1528    0.0000 H   0  0  0  0  0  0  0  0  0  0  0  0
    9.4651    1.0316    0.0000 H   0  0  0  0  0  0  0  0  0  0  0  0
    9.9274   -1.5679    0.0000 H   0  0  0  0  0  0  0  0  0  0  0  0
   10.7185   -1.6653    0.0000 H   0  0  0  0  0  0  0  0  0  0  0  0
    9.2563   -2.0388    0.0000 H   0  0  0  0  0  0  0  0  0  0  0  0
   10.7537    0.5350    0.0000 H   0  0  0  0  0  0  0  0  0  0  0  0
   10.8716    1.4039    0.0000 H   0  0  0  0  0  0  0  0  0  0  0  0
   10.0028    1.5218    0.0000 H   0  0  0  0  0  0  0  0  0  0  0  0
   11.7551   -0.3320    0.0000 H   0  0  0  0  0  0  0  0  0  0  0  0
   10.9640   -0.2346    0.0000 H   0  0  0  0  0  0  0  0  0  0  0  0
    8.7944    2.0232    0.0000 H   0  0  0  0  0  0  0  0  0  0  0  0
    5.0774   -3.3713    0.0000 H   0  0  0  0  0  0  0  0  0  0  0  0
    5.2136   -4.2374    0.0000 H   0  0  0  0  0  0  0  0  0  0  0  0
    6.0798   -4.1011    0.0000 H   0  0  0  0  0  0  0  0  0  0  0  0
    4.5064   -2.1761    0.0000 H   0  0  0  0  0  0  0  0  0  0  0  0
   21.8438   -2.8677    0.0000 H   0  0  0  0  0  0  0  0  0  0  0  0
   22.0697   -1.6009    0.0000 H   0  0  0  0  0  0  0  0  0  0  0  0
   21.2786   -1.5035    0.0000 H   0  0  0  0  0  0  0  0  0  0  0  0
   19.4715   -2.5759    0.0000 H   0  0  0  0  0  0  0  0  0  0  0  0
   20.2420   -2.8368    0.0000 H   0  0  0  0  0  0  0  0  0  0  0  0
   21.0331   -2.9342    0.0000 H   0  0  0  0  0  0  0  0  0  0  0  0
   20.3506   -1.3894    0.0000 H   0  0  0  0  0  0  0  0  0  0  0  0
   19.5595   -1.2921    0.0000 H   0  0  0  0  0  0  0  0  0  0  0  0
    4.4720    2.0213    0.0000 H   0  0  0  0  0  0  0  0  0  0  0  0
   23.7887   -1.8124    0.0000 H   0  0  0  0  0  0  0  0  0  0  0  0
   22.9976   -1.7150    0.0000 H   0  0  0  0  0  0  0  0  0  0  0  0
    8.1837    3.2360    0.0000 H   0  0  0  0  0  0  0  0  0  0  0  0
    8.0336    4.0999    0.0000 H   0  0  0  0  0  0  0  0  0  0  0  0
    7.1697    3.9498    0.0000 H   0  0  0  0  0  0  0  0  0  0  0  0
   18.6315   -1.1779    0.0000 H   0  0  0  0  0  0  0  0  0  0  0  0
   17.8404   -1.0806    0.0000 H   0  0  0  0  0  0  0  0  0  0  0  0
   23.6802   -3.2598    0.0000 H   0  0  0  0  0  0  0  0  0  0  0  0
   24.4713   -3.3571    0.0000 H   0  0  0  0  0  0  0  0  0  0  0  0
   16.8038   -2.4139    0.0000 H   0  0  0  0  0  0  0  0  0  0  0  0
   17.5949   -2.5112    0.0000 H   0  0  0  0  0  0  0  0  0  0  0  0
   25.5078   -2.0238    0.0000 H   0  0  0  0  0  0  0  0  0  0  0  0
   24.7167   -1.9265    0.0000 H   0  0  0  0  0  0  0  0  0  0  0  0
   21.6771   -3.5424    0.0000 H   0  0  0  0  0  0  0  0  0  0  0  0
   22.2168   -4.2335    0.0000 H   0  0  0  0  0  0  0  0  0  0  0  0
   22.9079   -3.6938    0.0000 H   0  0  0  0  0  0  0  0  0  0  0  0
    4.9261    3.5120    0.0000 H   0  0  0  0  0  0  0  0  0  0  0  0
   18.2390   -3.1194    0.0000 H   0  0  0  0  0  0  0  0  0  0  0  0
   18.7786   -3.8105    0.0000 H   0  0  0  0  0  0  0  0  0  0  0  0
   19.4697   -3.2708    0.0000 H   0  0  0  0  0  0  0  0  0  0  0  0
    2.5870   -1.7024    0.0000 H   0  0  0  0  0  0  0  0  0  0  0  0
    3.3777   -1.6017    0.0000 H   0  0  0  0  0  0  0  0  0  0  0  0
   25.2820   -3.2907    0.0000 H   0  0  0  0  0  0  0  0  0  0  0  0
   16.9124   -0.9664    0.0000 H   0  0  0  0  0  0  0  0  0  0  0  0
   16.1213   -0.8691    0.0000 H   0  0  0  0  0  0  0  0  0  0  0  0
   11.2344   -4.3373    0.0000 H   0  0  0  0  0  0  0  0  0  0  0  0
   11.9237   -3.7953    0.0000 H   0  0  0  0  0  0  0  0  0  0  0  0
   11.3816   -3.1061    0.0000 H   0  0  0  0  0  0  0  0  0  0  0  0
    3.2977    1.4895    0.0000 H   0  0  0  0  0  0  0  0  0  0  0  0
    2.4288    1.3715    0.0000 H   0  0  0  0  0  0  0  0  0  0  0  0
    2.5469    0.5026    0.0000 H   0  0  0  0  0  0  0  0  0  0  0  0
   13.3656   -1.9909    0.0000 H   0  0  0  0  0  0  0  0  0  0  0  0
   14.1567   -2.0882    0.0000 H   0  0  0  0  0  0  0  0  0  0  0  0
   14.8154   -0.5623    0.0000 H   0  0  0  0  0  0  0  0  0  0  0  0
    2.2396   -0.2226    0.0000 H   0  0  0  0  0  0  0  0  0  0  0  0
    1.4282   -0.5548    0.0000 H   0  0  0  0  0  0  0  0  0  0  0  0
    1.7604   -1.3662    0.0000 H   0  0  0  0  0  0  0  0  0  0  0  0
   27.0155   -3.2288    0.0000 H   0  0  0  0  0  0  0  0  0  0  0  0
   27.3442   -2.4159    0.0000 H   0  0  0  0  0  0  0  0  0  0  0  0
   26.5313   -2.0873    0.0000 H   0  0  0  0  0  0  0  0  0  0  0  0
   25.1153   -3.9654    0.0000 H   0  0  0  0  0  0  0  0  0  0  0  0
   25.6550   -4.6565    0.0000 H   0  0  0  0  0  0  0  0  0  0  0  0
   26.3460   -4.1168    0.0000 H   0  0  0  0  0  0  0  0  0  0  0  0
    6.5596    4.5652    0.0000 H   0  0  0  0  0  0  0  0  0  0  0  0
    5.5759    4.9960    0.0000 H   0  0  0  0  0  0  0  0  0  0  0  0
   14.8008   -2.6965    0.0000 H   0  0  0  0  0  0  0  0  0  0  0  0
   15.3404   -3.3875    0.0000 H   0  0  0  0  0  0  0  0  0  0  0  0
   16.0315   -2.8479    0.0000 H   0  0  0  0  0  0  0  0  0  0  0  0
  2 20  2  0  0  0  0
  3 27  1  0  0  0  0
  3 56  1  0  0  0  0
  4 27  2  0  0  0  0
  5 33  1  0  0  0  0
  5 58  1  0  0  0  0
  6 33  2  0  0  0  0
  7 13  1  0  0  0  0
  7 18  2  0  0  0  0
  8 16  1  0  0  0  0
  8 23  1  0  0  0  0
  9 26  1  0  0  0  0
  9 30  1  0  0  0  0
 10 35  1  0  0  0  0
 10 43  2  0  0  0  0
 11 12  1  0  0  0  0
 11 13  1  0  0  0  0
 11 15  1  6  0  0  0
 11 66  1  0  0  0  0
 12 18  1  0  0  0  0
 12 21  1  1  0  0  0
 12 67  1  0  0  0  0
 13 14  2  0  0  0  0
 14 16  1  0  0  0  0
 14 17  1  0  0  0  0
 15 24  1  0  0  0  0
 15 68  1  0  0  0  0
 15 69  1  0  0  0  0
 16 19  2  0  0  0  0
 17 20  1  0  0  0  0
 17 27  1  1  0  0  0
 17 70  1  0  0  0  0
 18 25  1  0  0  0  0
 19 20  1  0  0  0  0
 19 22  1  0  0  0  0
 21 71  1  0  0  0  0
 21 72  1  0  0  0  0
 21 73  1  0  0  0  0
 22 23  2  0  0  0  0
 22 29  1  0  0  0  0
 23 31  1  0  0  0  0
 24 33  1  0  0  0  0
 24 74  1  0  0  0  0
 24 75  1  0  0  0  0
 25 26  2  0  0  0  0
 25 76  1  0  0  0  0
 26 28  1  0  0  0  0
 28 32  2  0  0  0  0
 28 44  1  0  0  0  0
 29 77  1  0  0  0  0
 29 78  1  0  0  0  0
 29 79  1  0  0  0  0
 30 32  1  0  0  0  0
 30 40  2  0  0  0  0
 31 35  2  0  0  0  0
 31 80  1  0  0  0  0
 32 49  1  0  0  0  0
 34 36  1  0  0  0  0
 34 41  1  0  0  0  0
 34 51  1  1  0  0  0
 34 81  1  0  0  0  0
 35 42  1  0  0  0  0
 36 38  1  0  0  0  0
 36 82  1  0  0  0  0
 36 83  1  0  0  0  0
 37 39  1  0  0  0  0
 37 45  1  0  0  0  0
 37 52  1  1  0  0  0
 37 84  1  0  0  0  0
 38 39  1  0  0  0  0
 38 85  1  0  0  0  0
 38 86  1  0  0  0  0
 39 87  1  0  0  0  0
 39 88  1  0  0  0  0
 40 43  1  0  0  0  0
 40 89  1  0  0  0  0
 41 47  1  0  0  0  0
 41 90  1  0  0  0  0
 41 91  1  0  0  0  0
 42 46  2  0  0  0  0
 42 53  1  0  0  0  0
 43 46  1  0  0  0  0
 44 92  1  0  0  0  0
 44 93  1  0  0  0  0
 44 94  1  0  0  0  0
 45 48  1  0  0  0  0
 45 95  1  0  0  0  0
 45 96  1  0  0  0  0
 46 57  1  0  0  0  0
 47 50  1  0  0  0  0
 47 97  1  0  0  0  0
 47 98  1  0  0  0  0
 48 55  1  0  0  0  0
 48 99  1  0  0  0  0
 48100  1  0  0  0  0
 49 64  2  0  0  0  0
 49106  1  0  0  0  0
 50 54  1  0  0  0  0
 50101  1  0  0  0  0
 50102  1  0  0  0  0
 51103  1  0  0  0  0
 51104  1  0  0  0  0
 51105  1  0  0  0  0
 52107  1  0  0  0  0
 52108  1  0  0  0  0
 52109  1  0  0  0  0
 53 61  1  0  0  0  0
 53110  1  0  0  0  0
 53111  1  0  0  0  0
 54 62  1  0  0  0  0
 54 63  1  0  0  0  0
 54112  1  0  0  0  0
 55 59  1  0  0  0  0
 55113  1  0  0  0  0
 55114  1  0  0  0  0
 56115  1  0  0  0  0
 56116  1  0  0  0  0
 56117  1  0  0  0  0
 57118  1  0  0  0  0
 57119  1  0  0  0  0
 57120  1  0  0  0  0
 58 60  1  0  0  0  0
 58121  1  0  0  0  0
 58122  1  0  0  0  0
 59 60  2  0  0  0  0
 59 65  1  0  0  0  0
 60123  1  0  0  0  0
 61124  1  0  0  0  0
 61125  1  0  0  0  0
 61126  1  0  0  0  0
 62127  1  0  0  0  0
 62128  1  0  0  0  0
 62129  1  0  0  0  0
 63130  1  0  0  0  0
 63131  1  0  0  0  0
 63132  1  0  0  0  0
 64133  1  0  0  0  0
 64134  1  0  0  0  0
 65135  1  0  0  0  0
 65136  1  0  0  0  0
 65137  1  0  0  0  0
M  CHG  3   1   2   8  -1   9  -1
M  END
> <PUBCHEM_COMPOUND_CID>
12085802

> <PUBCHEM_COMPOUND_CANONICALIZED>
1

> <PUBCHEM_CACTVS_COMPLEXITY>
2130

> <PUBCHEM_CACTVS_HBOND_ACCEPTOR>
9

> <PUBCHEM_CACTVS_HBOND_DONOR>
0

> <PUBCHEM_CACTVS_ROTATABLE_BOND>
22

> <PUBCHEM_CACTVS_SUBSKEYS>
AAADcfB/uAAAACAAAAAAAAAAAAAAAeIECBAAAAAAAAAWAACBgAAAHgAAAAAADQyhngICiJIIFACoA6TyTACCgCAlAiAImCEwRNgIJH7ItZGGEYhk4ADI6Ue82fOegAAAAAAAAAAAAAAAAAAAASAAAQAAAA==

> <PUBCHEM_IUPAC_OPENEYE_NAME>
magnesium;methyl (3R,21S,22S)-11-ethyl-12,17,21,26-tetramethyl-4-oxo-22-[3-oxo-3-[(E,7R,11R)-3,7,11,15-tetramethylhexadec-2-enoxy]propyl]-16-vinyl-23,25-diaza-7,24-diazanidahexacyclo[18.2.1.15,8.110,13.115,18.02,6]hexacosa-1,5,8(26),9,11,13(25),14,16,18,20(23)-decaene-3-carboxylate

> <PUBCHEM_IUPAC_CAS_NAME>
magnesium;(3R,21S,22S)-16-ethenyl-11-ethyl-12,17,21,26-tetramethyl-4-oxo-22-[3-oxo-3-[(E,7R,11R)-3,7,11,15-tetramethylhexadec-2-enoxy]propyl]-23,25-diaza-7,24-diazanidahexacyclo[18.2.1.15,8.110,13.115,18.02,6]hexacosa-1,5,8(26),9,11,13(25),14,16,18,20(23)-decaene-3-carboxylic acid methyl ester

> <PUBCHEM_IUPAC_NAME_MARKUP>
magnesium;methyl (3<I>R</I>,21<I>S</I>,22<I>S</I>)-16-ethenyl-11-ethyl-12,17,21,26-tetramethyl-4-oxo-22-[3-oxo-3-[(<I>E</I>,7<I>R</I>,11<I>R</I>)-3,7,11,15-tetramethylhexadec-2-enoxy]propyl]-23,25-diaza-7,24-diazanidahexacyclo[18.2.1.1<SUP>5,8</SUP>.1<SUP>10,13</SUP>.1<SUP>15,18</SUP>.0<SUP>2,6</SUP>]hexacosa-1,5,8(26),9,11,13(25),14,16,18,20(23)-decaene-3-carboxylate

> <PUBCHEM_IUPAC_NAME>
magnesium;methyl (3R,21S,22S)-16-ethenyl-11-ethyl-12,17,21,26-tetramethyl-4-oxo-22-[3-oxo-3-[(E,7R,11R)-3,7,11,15-tetramethylhexadec-2-enoxy]propyl]-23,25-diaza-7,24-diazanidahexacyclo[18.2.1.15,8.110,13.115,18.02,6]hexacosa-1,5,8(26),9,11,13(25),14,16,18,20(23)-decaene-3-carboxylate

> <PUBCHEM_IUPAC_SYSTEMATIC_NAME>
magnesium;methyl (3R,21S,22S)-16-ethenyl-11-ethyl-12,17,21,26-tetramethyl-4-oxidanylidene-22-[3-oxidanylidene-3-[(E,7R,11R)-3,7,11,15-tetramethylhexadec-2-enoxy]propyl]-23,25-diaza-7,24-diazanidahexacyclo[18.2.1.15,8.110,13.115,18.02,6]hexacosa-1,5,8(26),9,11,13(25),14,16,18,20(23)-decaene-3-carboxylate

> <PUBCHEM_IUPAC_TRADITIONAL_NAME>
magnesium;(3R,21S,22S)-11-ethyl-4-keto-22-[3-keto-3-[(E,7R,11R)-3,7,11,15-tetramethylhexadec-2-enoxy]propyl]-12,17,21,26-tetramethyl-16-vinyl-23,25-diaza-7,24-diazanidahexacyclo[18.2.1.15,8.110,13.115,18.02,6]hexacosa-1,5,8(26),9,11,13(25),14,16,18,20(23)-decaene-3-carboxylic acid methyl ester

> <PUBCHEM_IUPAC_INCHI>
InChI=1S/C55H73N4O5.Mg/c1-13-39-35(8)42-28-44-37(10)41(24-25-48(60)64-27-26-34(7)23-17-22-33(6)21-16-20-32(5)19-15-18-31(3)4)52(58-44)50-51(55(62)63-12)54(61)49-38(11)45(59-53(49)50)30-47-40(14-2)36(9)43(57-47)29-46(39)56-42;/h13,26,28-33,37,41,51H,1,14-25,27H2,2-12H3,(H-,56,57,58,59,61);/q-1;+2/p-1/b34-26+;/t32-,33-,37+,41+,51-;/m1./s1

> <PUBCHEM_IUPAC_INCHIKEY>
ATNHDLDRLWWWCB-AENOIHSZSA-M

> <PUBCHEM_EXACT_MASS>
892.535313

> <PUBCHEM_MOLECULAR_FORMULA>
C55H72MgN4O5

> <PUBCHEM_MOLECULAR_WEIGHT>
893.5

> <PUBCHEM_OPENEYE_CAN_SMILES>
CCC1=C(C2=NC1=CC3=C(C4=C([N-]3)C(=C5C(C(C(=N5)C=C6C(=C(C(=C2)[N-]6)C=C)C)C)CCC(=O)OCC=C(C)CCCC(C)CCCC(C)CCCC(C)C)C(C4=O)C(=O)OC)C)C.[Mg+2]

> <PUBCHEM_OPENEYE_ISO_SMILES>
CCC1=C(C2=NC1=CC3=C(C4=C([N-]3)C(=C5[C@H]([C@@H](C(=N5)C=C6C(=C(C(=C2)[N-]6)C=C)C)C)CCC(=O)OC/C=C(\C)/CCC[C@H](C)CCC[C@H](C)CCCC(C)C)[C@H](C4=O)C(=O)OC)C)C.[Mg+2]

> <PUBCHEM_CACTVS_TPSA>
96.4

> <PUBCHEM_MONOISOTOPIC_WEIGHT>
892.535313

> <PUBCHEM_TOTAL_CHARGE>
0

> <PUBCHEM_HEAVY_ATOM_COUNT>
65

> <PUBCHEM_ATOM_DEF_STEREO_COUNT>
5

> <PUBCHEM_ATOM_UDEF_STEREO_COUNT>
0

> <PUBCHEM_BOND_DEF_STEREO_COUNT>
1

> <PUBCHEM_BOND_UDEF_STEREO_COUNT>
0

> <PUBCHEM_ISOTOPIC_ATOM_COUNT>
0

> <PUBCHEM_COMPONENT_COUNT>
2

> <PUBCHEM_CACTVS_TAUTO_COUNT>
-1

> <PUBCHEM_NONSTANDARDBOND>
1  8  7
1  9  7

> <PUBCHEM_COORDINATE_TYPE>
1
5
255

> <PUBCHEM_BONDANNOTATIONS>
10  35  8
10  43  8
11  15  6
12  21  5
13  14  8
14  16  8
16  19  8
17  27  5
18  25  8
19  22  8
22  23  8
23  31  8
25  26  8
26  28  8
28  32  8
30  32  8
30  40  8
31  35  8
34  51  5
37  52  5
40  43  8
7  13  8
7  18  8
8  16  8
8  23  8
9  26  8
9  30  8

$$$$
