70678558
  -OEChem-09152012022D

 39 41  0     1  0  0  0  0  0999 V2000
    2.9986   -0.3765    0.0000 C   0  0  1  0  0  0  0  0  0  0  0  0
    5.8153   -0.2913    0.0000 C   0  0  1  0  0  0  0  0  0  0  0  0
    4.4164   -0.3001    0.0000 C   0  0  2  0  0  0  0  0  0  0  0  0
    4.6752    0.6658    0.0000 C   0  0  3  0  0  0  0  0  0  0  0  0
    5.3659   -1.1800    0.0000 C   0  0  1  0  0  0  0  0  0  0  0  0
    3.5009   -1.2364    0.0000 C   0  0  0  0  0  0  0  0  0  0  0  0
    4.4439   -1.5565    0.0000 C   0  0  0  0  0  0  0  0  0  0  0  0
    3.1954    1.3176    0.0000 C   0  0  0  0  0  0  0  0  0  0  0  0
    4.5967    2.1266    0.0000 C   0  0  0  0  0  0  0  0  0  0  0  0
    2.0000   -0.4302    0.0000 C   0  0  0  0  0  0  0  0  0  0  0  0
    6.0440   -1.9150    0.0000 C   0  0  0  0  0  0  0  0  0  0  0  0
    3.6022    2.2311    0.0000 C   0  0  0  0  0  0  0  0  0  0  0  0
    5.2658    2.8697    0.0000 C   0  0  0  0  0  0  0  0  0  0  0  0
    5.7465   -2.8697    0.0000 C   0  0  0  0  0  0  0  0  0  0  0  0
    7.0195   -1.6953    0.0000 C   0  0  0  0  0  0  0  0  0  0  0  0
    6.6653   -0.2859    0.0000 H   0  0  0  0  0  0  0  0  0  0  0  0
    4.1964   -1.1212    0.0000 H   0  0  0  0  0  0  0  0  0  0  0  0
    5.2299    0.9428    0.0000 H   0  0  0  0  0  0  0  0  0  0  0  0
    5.9800   -1.0944    0.0000 H   0  0  0  0  0  0  0  0  0  0  0  0
    2.8991   -1.3858    0.0000 H   0  0  0  0  0  0  0  0  0  0  0  0
    3.4749   -1.8558    0.0000 H   0  0  0  0  0  0  0  0  0  0  0  0
    4.0874   -2.0638    0.0000 H   0  0  0  0  0  0  0  0  0  0  0  0
    4.8304   -2.0413    0.0000 H   0  0  0  0  0  0  0  0  0  0  0  0
    2.6793    1.6611    0.0000 H   0  0  0  0  0  0  0  0  0  0  0  0
    2.7702    0.8664    0.0000 H   0  0  0  0  0  0  0  0  0  0  0  0
    1.9667    0.1889    0.0000 H   0  0  0  0  0  0  0  0  0  0  0  0
    1.3809   -0.4636    0.0000 H   0  0  0  0  0  0  0  0  0  0  0  0
    2.0333   -1.0493    0.0000 H   0  0  0  0  0  0  0  0  0  0  0  0
    5.4391   -2.0512    0.0000 H   0  0  0  0  0  0  0  0  0  0  0  0
    3.2922    2.7680    0.0000 H   0  0  0  0  0  0  0  0  0  0  0  0
    5.7266    2.4549    0.0000 H   0  0  0  0  0  0  0  0  0  0  0  0
    5.6807    3.3305    0.0000 H   0  0  0  0  0  0  0  0  0  0  0  0
    4.8051    3.2846    0.0000 H   0  0  0  0  0  0  0  0  0  0  0  0
    5.1545   -2.6853    0.0000 H   0  0  0  0  0  0  0  0  0  0  0  0
    5.5620   -3.4616    0.0000 H   0  0  0  0  0  0  0  0  0  0  0  0
    6.3384   -3.0542    0.0000 H   0  0  0  0  0  0  0  0  0  0  0  0
    7.1557   -2.3001    0.0000 H   0  0  0  0  0  0  0  0  0  0  0  0
    7.6244   -1.5590    0.0000 H   0  0  0  0  0  0  0  0  0  0  0  0
    6.8833   -1.0904    0.0000 H   0  0  0  0  0  0  0  0  0  0  0  0
  1  3  1  0  0  0  0
  1  4  1  0  0  0  0
  1  6  1  0  0  0  0
  1 10  1  1  0  0  0
  2  3  1  0  0  0  0
  2  4  1  0  0  0  0
  2  5  1  0  0  0  0
  2 16  1  6  0  0  0
  3  8  1  0  0  0  0
  3 17  1  6  0  0  0
  4  9  1  0  0  0  0
  4 18  1  0  0  0  0
  5  7  1  0  0  0  0
  5 11  1  6  0  0  0
  5 19  1  0  0  0  0
  6  7  1  0  0  0  0
  6 20  1  0  0  0  0
  6 21  1  0  0  0  0
  7 22  1  0  0  0  0
  7 23  1  0  0  0  0
  8 12  1  0  0  0  0
  8 24  1  0  0  0  0
  8 25  1  0  0  0  0
  9 12  2  0  0  0  0
  9 13  1  0  0  0  0
 10 26  1  0  0  0  0
 10 27  1  0  0  0  0
 10 28  1  0  0  0  0
 11 14  1  0  0  0  0
 11 15  1  0  0  0  0
 11 29  1  0  0  0  0
 12 30  1  0  0  0  0
 13 31  1  0  0  0  0
 13 32  1  0  0  0  0
 13 33  1  0  0  0  0
 14 34  1  0  0  0  0
 14 35  1  0  0  0  0
 14 36  1  0  0  0  0
 15 37  1  0  0  0  0
 15 38  1  0  0  0  0
 15 39  1  0  0  0  0
M  END
> <PUBCHEM_COMPOUND_CID>
70678558

> <PUBCHEM_COMPOUND_CANONICALIZED>
1

> <PUBCHEM_CACTVS_COMPLEXITY>
312

> <PUBCHEM_CACTVS_HBOND_ACCEPTOR>
0

> <PUBCHEM_CACTVS_HBOND_DONOR>
0

> <PUBCHEM_CACTVS_ROTATABLE_BOND>
1

> <PUBCHEM_CACTVS_SUBSKEYS>
AAADceBwAAAAAAAAAAAAAAAAAABgAAAAAAAwYIEAAAAAAAAAAAAAGAAAAAAADwCAAAACAAAAAACAAiBCAAAAAAAgAAAACAAAAAgAAAIAAQAAAAAAgAAIAAMAgMAPgAAAAAAAAACAAAQAACAAAAAAAAAAAA==

> <PUBCHEM_IUPAC_OPENEYE_NAME>
(1S,6S,7S,8S)-8-isopropyl-1,3-dimethyl-tricyclo[4.4.0.02,7]dec-3-ene

> <PUBCHEM_IUPAC_CAS_NAME>
(1S,6S,7S,8S)-1,3-dimethyl-8-propan-2-yltricyclo[4.4.0.02,7]dec-3-ene

> <PUBCHEM_IUPAC_NAME_MARKUP>
(1<I>S</I>,6<I>S</I>,7<I>S</I>,8<I>S</I>)-1,3-dimethyl-8-propan-2-yltricyclo[4.4.0.0<SUP>2,7</SUP>]dec-3-ene

> <PUBCHEM_IUPAC_NAME>
(1S,6S,7S,8S)-1,3-dimethyl-8-propan-2-yltricyclo[4.4.0.02,7]dec-3-ene

> <PUBCHEM_IUPAC_SYSTEMATIC_NAME>
(1S,6S,7S,8S)-1,3-dimethyl-8-propan-2-yl-tricyclo[4.4.0.02,7]dec-3-ene

> <PUBCHEM_IUPAC_TRADITIONAL_NAME>
(1S,6S,7S,8S)-8-isopropyl-1,3-dimethyl-tricyclo[4.4.0.02,7]dec-3-ene

> <PUBCHEM_IUPAC_INCHI>
InChI=1S/C15H24/c1-9(2)11-7-8-15(4)12-6-5-10(3)14(15)13(11)12/h5,9,11-14H,6-8H2,1-4H3/t11-,12-,13-,14?,15-/m0/s1

> <PUBCHEM_IUPAC_INCHIKEY>
VLXDPFLIRFYIME-XIQJJJERSA-N

> <PUBCHEM_XLOGP3_AA>
4.5

> <PUBCHEM_EXACT_MASS>
204.187801

> <PUBCHEM_MOLECULAR_FORMULA>
C15H24

> <PUBCHEM_MOLECULAR_WEIGHT>
204.35

> <PUBCHEM_OPENEYE_CAN_SMILES>
CC1=CCC2C3C1C2(CCC3C(C)C)C

> <PUBCHEM_OPENEYE_ISO_SMILES>
CC1=CC[C@H]2[C@H]3C1[C@]2(CC[C@H]3C(C)C)C

> <PUBCHEM_CACTVS_TPSA>
0

> <PUBCHEM_MONOISOTOPIC_WEIGHT>
204.187801

> <PUBCHEM_TOTAL_CHARGE>
0

> <PUBCHEM_HEAVY_ATOM_COUNT>
15

> <PUBCHEM_ATOM_DEF_STEREO_COUNT>
4

> <PUBCHEM_ATOM_UDEF_STEREO_COUNT>
1

> <PUBCHEM_BOND_DEF_STEREO_COUNT>
0

> <PUBCHEM_BOND_UDEF_STEREO_COUNT>
0

> <PUBCHEM_ISOTOPIC_ATOM_COUNT>
0

> <PUBCHEM_COMPONENT_COUNT>
1

> <PUBCHEM_CACTVS_TAUTO_COUNT>
-1

> <PUBCHEM_COORDINATE_TYPE>
1
5
255

> <PUBCHEM_BONDANNOTATIONS>
1  10  5
2  16  6
3  17  6
4  9  3
5  11  6

$$$$
