16132354
  -OEChem-08272000042D

113120  0     1  0  0  0  0  0999 V2000
    8.9859    0.5419    0.0000 O   0  0  0  0  0  0  0  0  0  0  0  0
    9.8680   -1.9996    0.0000 O   0  0  0  0  0  0  0  0  0  0  0  0
   11.6382   -1.0027    0.0000 O   0  0  0  0  0  0  0  0  0  0  0  0
   11.6540    1.0455    0.0000 O   0  0  0  0  0  0  0  0  0  0  0  0
    9.8801    2.0697    0.0000 O   0  0  0  0  0  0  0  0  0  0  0  0
    7.8772   -1.9655    0.0000 O   0  0  0  0  0  0  0  0  0  0  0  0
    8.8477   -3.6798    0.0000 O   0  0  0  0  0  0  0  0  0  0  0  0
   12.5215    0.4872    0.0000 O   0  0  0  0  0  0  0  0  0  0  0  0
   10.7938    2.5489    0.0000 O   0  0  0  0  0  0  0  0  0  0  0  0
    8.1481    2.0630    0.0000 O   0  0  0  0  0  0  0  0  0  0  0  0
    8.8772   -1.9655    0.0000 O   0  0  0  0  0  0  0  0  0  0  0  0
    9.3740   -6.3338    0.0000 O   0  0  0  0  0  0  0  0  0  0  0  0
    8.3803   -6.3338    0.0000 O   0  0  0  0  0  0  0  0  0  0  0  0
   12.4464   -4.5757    0.0000 O   0  0  0  0  0  0  0  0  0  0  0  0
    5.3079   -4.5757    0.0000 O   0  0  0  0  0  0  0  0  0  0  0  0
   11.4223   -6.3496    0.0000 O   0  0  0  0  0  0  0  0  0  0  0  0
    6.3321   -6.3496    0.0000 O   0  0  0  0  0  0  0  0  0  0  0  0
   15.9738   -0.5528    0.0000 O   0  0  0  0  0  0  0  0  0  0  0  0
   14.2072   -3.5326    0.0000 O   0  0  0  0  0  0  0  0  0  0  0  0
   13.4015    5.0388    0.0000 O   0  0  0  0  0  0  0  0  0  0  0  0
   15.1219    2.0322    0.0000 O   0  0  0  0  0  0  0  0  0  0  0  0
   15.9507   -2.5527    0.0000 O   0  0  0  0  0  0  0  0  0  0  0  0
    7.2686    5.5597    0.0000 O   0  0  0  0  0  0  0  0  0  0  0  0
   10.7327    5.5730    0.0000 O   0  0  0  0  0  0  0  0  0  0  0  0
   15.1296    4.0322    0.0000 O   0  0  0  0  0  0  0  0  0  0  0  0
    8.9968    6.5663    0.0000 O   0  0  0  0  0  0  0  0  0  0  0  0
    6.3146   -2.8475    0.0000 O   0  0  0  0  0  0  0  0  0  0  0  0
    5.3213   -1.1116    0.0000 O   0  0  0  0  0  0  0  0  0  0  0  0
    3.3213   -1.1039    0.0000 O   0  0  0  0  0  0  0  0  0  0  0  0
    2.3079   -4.5641    0.0000 O   0  0  0  0  0  0  0  0  0  0  0  0
    3.8046   -5.4359    0.0000 O   0  0  0  0  0  0  0  0  0  0  0  0
    9.8680   -0.9996    0.0000 C   0  0  1  0  0  0  0  0  0  0  0  0
   10.7780   -0.4927    0.0000 C   0  0  1  0  0  0  0  0  0  0  0  0
    9.0020   -0.4996    0.0000 C   0  0  1  0  0  0  0  0  0  0  0  0
   10.7861    0.5489    0.0000 C   0  0  2  0  0  0  0  0  0  0  0  0
    9.8840    1.0697    0.0000 C   0  0  1  0  0  0  0  0  0  0  0  0
    8.1360   -0.9996    0.0000 C   0  0  0  0  0  0  0  0  0  0  0  0
    9.3772   -2.8315    0.0000 C   0  0  0  0  0  0  0  0  0  0  0  0
   12.5100   -0.5128    0.0000 C   0  0  0  0  0  0  0  0  0  0  0  0
   11.6579    2.0455    0.0000 C   0  0  0  0  0  0  0  0  0  0  0  0
    9.8772   -3.6976    0.0000 C   0  0  0  0  0  0  0  0  0  0  0  0
    9.0122    2.5663    0.0000 C   0  0  0  0  0  0  0  0  0  0  0  0
    8.3772   -2.8315    0.0000 C   0  0  0  0  0  0  0  0  0  0  0  0
    9.3772   -4.5636    0.0000 C   0  0  0  0  0  0  0  0  0  0  0  0
    7.8772   -3.6976    0.0000 C   0  0  0  0  0  0  0  0  0  0  0  0
    8.3772   -4.5636    0.0000 C   0  0  0  0  0  0  0  0  0  0  0  0
   13.3702   -1.0227    0.0000 C   0  0  0  0  0  0  0  0  0  0  0  0
   12.5258    2.5422    0.0000 C   0  0  0  0  0  0  0  0  0  0  0  0
    9.0083    3.5663    0.0000 C   0  0  0  0  0  0  0  0  0  0  0  0
   10.9187   -3.6815    0.0000 C   0  0  0  0  0  0  0  0  0  0  0  0
    9.8840   -5.4736    0.0000 C   0  0  0  0  0  0  0  0  0  0  0  0
    7.8703   -5.4736    0.0000 C   0  0  0  0  0  0  0  0  0  0  0  0
    6.8356   -3.6815    0.0000 C   0  0  0  0  0  0  0  0  0  0  0  0
   13.3586   -2.0227    0.0000 C   0  0  0  0  0  0  0  0  0  0  0  0
   14.2419   -0.5328    0.0000 C   0  0  0  0  0  0  0  0  0  0  0  0
   11.4464   -4.5795    0.0000 C   0  0  0  0  0  0  0  0  0  0  0  0
   10.9256   -5.4816    0.0000 C   0  0  0  0  0  0  0  0  0  0  0  0
   13.3899    2.0388    0.0000 C   0  0  0  0  0  0  0  0  0  0  0  0
   12.5297    3.5422    0.0000 C   0  0  0  0  0  0  0  0  0  0  0  0
    6.3079   -4.5795    0.0000 C   0  0  0  0  0  0  0  0  0  0  0  0
    6.8287   -5.4816    0.0000 C   0  0  0  0  0  0  0  0  0  0  0  0
    9.8724    4.0697    0.0000 C   0  0  0  0  0  0  0  0  0  0  0  0
    8.1404    4.0630    0.0000 C   0  0  0  0  0  0  0  0  0  0  0  0
   15.1021   -1.0428    0.0000 C   0  0  0  0  0  0  0  0  0  0  0  0
   14.2188   -2.5326    0.0000 C   0  0  0  0  0  0  0  0  0  0  0  0
   13.3976    4.0388    0.0000 C   0  0  0  0  0  0  0  0  0  0  0  0
   14.2578    2.5355    0.0000 C   0  0  0  0  0  0  0  0  0  0  0  0
   15.0905   -2.0427    0.0000 C   0  0  0  0  0  0  0  0  0  0  0  0
    8.1365    5.0630    0.0000 C   0  0  0  0  0  0  0  0  0  0  0  0
    9.8686    5.0697    0.0000 C   0  0  0  0  0  0  0  0  0  0  0  0
   14.2617    3.5355    0.0000 C   0  0  0  0  0  0  0  0  0  0  0  0
    9.0006    5.5663    0.0000 C   0  0  0  0  0  0  0  0  0  0  0  0
    4.8112   -3.7077    0.0000 C   0  0  0  0  0  0  0  0  0  0  0  0
    3.8112   -3.7039    0.0000 C   0  0  0  0  0  0  0  0  0  0  0  0
    5.3146   -2.8436    0.0000 C   0  0  0  0  0  0  0  0  0  0  0  0
    3.3146   -2.8359    0.0000 C   0  0  0  0  0  0  0  0  0  0  0  0
    4.8179   -1.9757    0.0000 C   0  0  0  0  0  0  0  0  0  0  0  0
    3.8179   -1.9718    0.0000 C   0  0  0  0  0  0  0  0  0  0  0  0
    3.3079   -4.5680    0.0000 C   0  0  0  0  0  0  0  0  0  0  0  0
   10.6009   -1.4302    0.0000 H   0  0  0  0  0  0  0  0  0  0  0  0
   11.3179   -0.1879    0.0000 H   0  0  0  0  0  0  0  0  0  0  0  0
    8.2626   -0.0803    0.0000 H   0  0  0  0  0  0  0  0  0  0  0  0
   10.7873    1.1689    0.0000 H   0  0  0  0  0  0  0  0  0  0  0  0
   10.4203    1.3807    0.0000 H   0  0  0  0  0  0  0  0  0  0  0  0
    7.9755   -0.4007    0.0000 H   0  0  0  0  0  0  0  0  0  0  0  0
    7.5160   -0.9996    0.0000 H   0  0  0  0  0  0  0  0  0  0  0  0
   11.2224   -3.1410    0.0000 H   0  0  0  0  0  0  0  0  0  0  0  0
    6.5319   -3.1410    0.0000 H   0  0  0  0  0  0  0  0  0  0  0  0
   12.8181   -2.3264    0.0000 H   0  0  0  0  0  0  0  0  0  0  0  0
   14.2491    0.0872    0.0000 H   0  0  0  0  0  0  0  0  0  0  0  0
   13.3875    1.4189    0.0000 H   0  0  0  0  0  0  0  0  0  0  0  0
   11.9939    3.8542    0.0000 H   0  0  0  0  0  0  0  0  0  0  0  0
   10.4105    3.7617    0.0000 H   0  0  0  0  0  0  0  0  0  0  0  0
    7.6046    3.7509    0.0000 H   0  0  0  0  0  0  0  0  0  0  0  0
    9.6778   -6.8742    0.0000 H   0  0  0  0  0  0  0  0  0  0  0  0
    8.0765   -6.8742    0.0000 H   0  0  0  0  0  0  0  0  0  0  0  0
   12.7543   -4.0375    0.0000 H   0  0  0  0  0  0  0  0  0  0  0  0
   12.0423   -6.3519    0.0000 H   0  0  0  0  0  0  0  0  0  0  0  0
    5.7121   -6.3519    0.0000 H   0  0  0  0  0  0  0  0  0  0  0  0
   16.5072   -0.8690    0.0000 H   0  0  0  0  0  0  0  0  0  0  0  0
   14.7405   -3.8488    0.0000 H   0  0  0  0  0  0  0  0  0  0  0  0
   13.9396    5.3468    0.0000 H   0  0  0  0  0  0  0  0  0  0  0  0
   15.6601    2.3401    0.0000 H   0  0  0  0  0  0  0  0  0  0  0  0
   16.4912   -2.2489    0.0000 H   0  0  0  0  0  0  0  0  0  0  0  0
    6.7328    5.2476    0.0000 H   0  0  0  0  0  0  0  0  0  0  0  0
   10.7303    6.1930    0.0000 H   0  0  0  0  0  0  0  0  0  0  0  0
   15.1320    4.6522    0.0000 H   0  0  0  0  0  0  0  0  0  0  0  0
    8.4586    6.8742    0.0000 H   0  0  0  0  0  0  0  0  0  0  0  0
    2.6946   -2.8335    0.0000 H   0  0  0  0  0  0  0  0  0  0  0  0
    6.6266   -2.3118    0.0000 H   0  0  0  0  0  0  0  0  0  0  0  0
    5.0133   -0.5735    0.0000 H   0  0  0  0  0  0  0  0  0  0  0  0
    2.7013   -1.1015    0.0000 H   0  0  0  0  0  0  0  0  0  0  0  0
    2.0000   -4.0260    0.0000 H   0  0  0  0  0  0  0  0  0  0  0  0
  1 34  1  0  0  0  0
  1 36  1  0  0  0  0
  2 32  1  0  0  0  0
  2 38  1  0  0  0  0
 33  3  1  1  0  0  0
  3 39  1  0  0  0  0
 35  4  1  6  0  0  0
  4 40  1  0  0  0  0
 36  5  1  1  0  0  0
  5 42  1  0  0  0  0
  6 37  1  0  0  0  0
  6 43  1  0  0  0  0
  7 38  2  0  0  0  0
  8 39  2  0  0  0  0
  9 40  2  0  0  0  0
 10 42  2  0  0  0  0
 11 43  2  0  0  0  0
 12 51  1  0  0  0  0
 12 95  1  0  0  0  0
 13 52  1  0  0  0  0
 13 96  1  0  0  0  0
 14 56  1  0  0  0  0
 14 97  1  0  0  0  0
 15 60  1  0  0  0  0
 15 73  1  0  0  0  0
 16 57  1  0  0  0  0
 16 98  1  0  0  0  0
 17 61  1  0  0  0  0
 17 99  1  0  0  0  0
 18 64  1  0  0  0  0
 18100  1  0  0  0  0
 19 65  1  0  0  0  0
 19101  1  0  0  0  0
 20 66  1  0  0  0  0
 20102  1  0  0  0  0
 21 67  1  0  0  0  0
 21103  1  0  0  0  0
 22 68  1  0  0  0  0
 22104  1  0  0  0  0
 23 69  1  0  0  0  0
 23105  1  0  0  0  0
 24 70  1  0  0  0  0
 24106  1  0  0  0  0
 25 71  1  0  0  0  0
 25107  1  0  0  0  0
 26 72  1  0  0  0  0
 26108  1  0  0  0  0
 27 75  1  0  0  0  0
 27110  1  0  0  0  0
 28 77  1  0  0  0  0
 28111  1  0  0  0  0
 29 78  1  0  0  0  0
 29112  1  0  0  0  0
 30 79  1  0  0  0  0
 30113  1  0  0  0  0
 31 79  2  0  0  0  0
 32 33  1  0  0  0  0
 32 34  1  0  0  0  0
 32 80  1  1  0  0  0
 33 35  1  0  0  0  0
 33 81  1  0  0  0  0
 34 37  1  0  0  0  0
 34 82  1  6  0  0  0
 35 36  1  0  0  0  0
 35 83  1  0  0  0  0
 36 84  1  0  0  0  0
 37 85  1  0  0  0  0
 37 86  1  0  0  0  0
 38 41  1  0  0  0  0
 39 47  1  0  0  0  0
 40 48  1  0  0  0  0
 41 44  1  0  0  0  0
 41 50  2  0  0  0  0
 42 49  1  0  0  0  0
 43 45  1  0  0  0  0
 44 46  1  0  0  0  0
 44 51  2  0  0  0  0
 45 46  1  0  0  0  0
 45 53  2  0  0  0  0
 46 52  2  0  0  0  0
 47 54  2  0  0  0  0
 47 55  1  0  0  0  0
 48 58  2  0  0  0  0
 48 59  1  0  0  0  0
 49 62  2  0  0  0  0
 49 63  1  0  0  0  0
 50 56  1  0  0  0  0
 50 87  1  0  0  0  0
 51 57  1  0  0  0  0
 52 61  1  0  0  0  0
 53 60  1  0  0  0  0
 53 88  1  0  0  0  0
 54 65  1  0  0  0  0
 54 89  1  0  0  0  0
 55 64  2  0  0  0  0
 55 90  1  0  0  0  0
 56 57  2  0  0  0  0
 58 67  1  0  0  0  0
 58 91  1  0  0  0  0
 59 66  2  0  0  0  0
 59 92  1  0  0  0  0
 60 61  2  0  0  0  0
 62 70  1  0  0  0  0
 62 93  1  0  0  0  0
 63 69  2  0  0  0  0
 63 94  1  0  0  0  0
 64 68  1  0  0  0  0
 65 68  2  0  0  0  0
 66 71  1  0  0  0  0
 67 71  2  0  0  0  0
 69 72  1  0  0  0  0
 70 72  2  0  0  0  0
 73 74  1  0  0  0  0
 73 75  2  0  0  0  0
 74 76  2  0  0  0  0
 74 79  1  0  0  0  0
 75 77  1  0  0  0  0
 76 78  1  0  0  0  0
 76109  1  0  0  0  0
 77 78  2  0  0  0  0
M  END
> <PUBCHEM_COMPOUND_CID>
16132354

> <PUBCHEM_COMPOUND_CANONICALIZED>
1

> <PUBCHEM_CACTVS_COMPLEXITY>
2170

> <PUBCHEM_CACTVS_HBOND_ACCEPTOR>
31

> <PUBCHEM_CACTVS_HBOND_DONOR>
18

> <PUBCHEM_CACTVS_ROTATABLE_BOND>
12

> <PUBCHEM_CACTVS_SUBSKEYS>
AAADcfB8PgAAAAAAAAAAAAAAAAAAAAAAAAA0YMGDAAAAAAABVAAAGgAACAAADBSwmAMwDoAABgCIAiDSCAACCAAkIAAAiAEGiMgdJzaGNRqieWOl4BUPuYfK7PzOoQABCAAYQABCAAIQADCAAAAAAAAAAA==

> <PUBCHEM_IUPAC_OPENEYE_NAME>
3,4,5-trihydroxy-2-[[(10R,11S,12R,13S,15R)-3,4,5,22,23-pentahydroxy-8,18-dioxo-11,12,13-tris[(3,4,5-trihydroxybenzoyl)oxy]-9,14,17-trioxatetracyclo[17.4.0.02,7.010,15]tricosa-1(23),2,4,6,19,21-hexaen-21-yl]oxy]benzoic acid

> <PUBCHEM_IUPAC_CAS_NAME>
3,4,5-trihydroxy-2-[[(10R,11S,12R,13S,15R)-3,4,5,22,23-pentahydroxy-8,18-dioxo-11,12,13-tris[oxo-(3,4,5-trihydroxyphenyl)methoxy]-9,14,17-trioxatetracyclo[17.4.0.02,7.010,15]tricosa-1(23),2,4,6,19,21-hexaen-21-yl]oxy]benzoic acid

> <PUBCHEM_IUPAC_NAME_MARKUP>
3,4,5-trihydroxy-2-[[(10<I>R</I>,11<I>S</I>,12<I>R</I>,13<I>S</I>,15<I>R</I>)-3,4,5,22,23-pentahydroxy-8,18-dioxo-11,12,13-tris[(3,4,5-trihydroxybenzoyl)oxy]-9,14,17-trioxatetracyclo[17.4.0.0<SUP>2,7</SUP>.0<SUP>10,15</SUP>]tricosa-1(23),2,4,6,19,21-hexaen-21-yl]oxy]benzoic acid

> <PUBCHEM_IUPAC_NAME>
3,4,5-trihydroxy-2-[[(10R,11S,12R,13S,15R)-3,4,5,22,23-pentahydroxy-8,18-dioxo-11,12,13-tris[(3,4,5-trihydroxybenzoyl)oxy]-9,14,17-trioxatetracyclo[17.4.0.02,7.010,15]tricosa-1(23),2,4,6,19,21-hexaen-21-yl]oxy]benzoic acid

> <PUBCHEM_IUPAC_SYSTEMATIC_NAME>
3,4,5-tris(oxidanyl)-2-[[(10R,11S,12R,13S,15R)-3,4,5,22,23-pentakis(oxidanyl)-8,18-bis(oxidanylidene)-11,12,13-tris[[3,4,5-tris(oxidanyl)phenyl]carbonyloxy]-9,14,17-trioxatetracyclo[17.4.0.02,7.010,15]tricosa-1(23),2,4,6,19,21-hexaen-21-yl]oxy]benzoic acid

> <PUBCHEM_IUPAC_TRADITIONAL_NAME>
3,4,5-trihydroxy-2-[[(10R,11S,12R,13S,15R)-11,12,13-trigalloyloxy-3,4,5,22,23-pentahydroxy-8,18-diketo-9,14,17-trioxatetracyclo[17.4.0.02,7.010,15]tricosa-1(23),2,4,6,19,21-hexaen-21-yl]oxy]benzoic acid

> <PUBCHEM_IUPAC_INCHI>
InChI=1S/C48H34O31/c49-17-1-11(2-18(50)29(17)57)43(68)77-40-39-26(75-48(79-45(70)13-5-21(53)31(59)22(54)6-13)41(40)78-44(69)12-3-19(51)30(58)20(52)4-12)10-73-46(71)15-9-25(74-38-16(42(66)67)8-24(56)33(61)37(38)65)34(62)36(64)28(15)27-14(47(72)76-39)7-23(55)32(60)35(27)63/h1-9,26,39-41,48-65H,10H2,(H,66,67)/t26-,39-,40+,41-,48+/m1/s1

> <PUBCHEM_IUPAC_INCHIKEY>
OMQLRKHSGHBOQC-DQLQDYHGSA-N

> <PUBCHEM_XLOGP3_AA>
2.7

> <PUBCHEM_EXACT_MASS>
1106.108404

> <PUBCHEM_MOLECULAR_FORMULA>
C48H34O31

> <PUBCHEM_MOLECULAR_WEIGHT>
1106.8

> <PUBCHEM_OPENEYE_CAN_SMILES>
C1C2C(C(C(C(O2)OC(=O)C3=CC(=C(C(=C3)O)O)O)OC(=O)C4=CC(=C(C(=C4)O)O)O)OC(=O)C5=CC(=C(C(=C5)O)O)O)OC(=O)C6=CC(=C(C(=C6C7=C(C(=C(C=C7C(=O)O1)OC8=C(C(=C(C=C8C(=O)O)O)O)O)O)O)O)O)O

> <PUBCHEM_OPENEYE_ISO_SMILES>
C1[C@@H]2[C@H]([C@@H]([C@H]([C@@H](O2)OC(=O)C3=CC(=C(C(=C3)O)O)O)OC(=O)C4=CC(=C(C(=C4)O)O)O)OC(=O)C5=CC(=C(C(=C5)O)O)O)OC(=O)C6=CC(=C(C(=C6C7=C(C(=C(C=C7C(=O)O1)OC8=C(C(=C(C=C8C(=O)O)O)O)O)O)O)O)O)O

> <PUBCHEM_CACTVS_TPSA>
531

> <PUBCHEM_MONOISOTOPIC_WEIGHT>
1106.108404

> <PUBCHEM_TOTAL_CHARGE>
0

> <PUBCHEM_HEAVY_ATOM_COUNT>
79

> <PUBCHEM_ATOM_DEF_STEREO_COUNT>
5

> <PUBCHEM_ATOM_UDEF_STEREO_COUNT>
0

> <PUBCHEM_BOND_DEF_STEREO_COUNT>
0

> <PUBCHEM_BOND_UDEF_STEREO_COUNT>
0

> <PUBCHEM_ISOTOPIC_ATOM_COUNT>
0

> <PUBCHEM_COMPONENT_COUNT>
1

> <PUBCHEM_CACTVS_TAUTO_COUNT>
-1

> <PUBCHEM_COORDINATE_TYPE>
1
5
255

> <PUBCHEM_BONDANNOTATIONS>
33  3  5
32  80  5
34  82  6
35  4  6
41  44  8
41  50  8
44  51  8
45  46  8
45  53  8
46  52  8
47  54  8
47  55  8
48  58  8
48  59  8
49  62  8
49  63  8
36  5  5
50  56  8
51  57  8
52  61  8
53  60  8
54  65  8
55  64  8
56  57  8
58  67  8
59  66  8
60  61  8
62  70  8
63  69  8
64  68  8
65  68  8
66  71  8
67  71  8
69  72  8
70  72  8
73  74  8
73  75  8
74  76  8
75  77  8
76  78  8
77  78  8

$$$$
