151590
  -OEChem-08272000022D

 97103  0     1  0  0  0  0  0999 V2000
    5.9860    0.5419    0.0000 O   0  0  0  0  0  0  0  0  0  0  0  0
    6.8680   -1.9996    0.0000 O   0  0  0  0  0  0  0  0  0  0  0  0
    8.6382   -1.0027    0.0000 O   0  0  0  0  0  0  0  0  0  0  0  0
    8.6540    1.0455    0.0000 O   0  0  0  0  0  0  0  0  0  0  0  0
    6.8802    2.0697    0.0000 O   0  0  0  0  0  0  0  0  0  0  0  0
    4.8772   -1.9655    0.0000 O   0  0  0  0  0  0  0  0  0  0  0  0
    5.8477   -3.6798    0.0000 O   0  0  0  0  0  0  0  0  0  0  0  0
    9.5216    0.4872    0.0000 O   0  0  0  0  0  0  0  0  0  0  0  0
    7.7938    2.5489    0.0000 O   0  0  0  0  0  0  0  0  0  0  0  0
    5.1481    2.0630    0.0000 O   0  0  0  0  0  0  0  0  0  0  0  0
    5.8772   -1.9655    0.0000 O   0  0  0  0  0  0  0  0  0  0  0  0
    6.3741   -6.3338    0.0000 O   0  0  0  0  0  0  0  0  0  0  0  0
    5.3803   -6.3338    0.0000 O   0  0  0  0  0  0  0  0  0  0  0  0
    9.4464   -4.5757    0.0000 O   0  0  0  0  0  0  0  0  0  0  0  0
    8.4223   -6.3496    0.0000 O   0  0  0  0  0  0  0  0  0  0  0  0
    3.3321   -6.3496    0.0000 O   0  0  0  0  0  0  0  0  0  0  0  0
    2.3079   -4.5757    0.0000 O   0  0  0  0  0  0  0  0  0  0  0  0
   12.9739   -0.5528    0.0000 O   0  0  0  0  0  0  0  0  0  0  0  0
   11.2072   -3.5326    0.0000 O   0  0  0  0  0  0  0  0  0  0  0  0
   10.4015    5.0388    0.0000 O   0  0  0  0  0  0  0  0  0  0  0  0
   12.1220    2.0322    0.0000 O   0  0  0  0  0  0  0  0  0  0  0  0
   12.9507   -2.5527    0.0000 O   0  0  0  0  0  0  0  0  0  0  0  0
    4.2686    5.5597    0.0000 O   0  0  0  0  0  0  0  0  0  0  0  0
    7.7327    5.5730    0.0000 O   0  0  0  0  0  0  0  0  0  0  0  0
   12.1297    4.0322    0.0000 O   0  0  0  0  0  0  0  0  0  0  0  0
    5.9968    6.5663    0.0000 O   0  0  0  0  0  0  0  0  0  0  0  0
    6.8680   -0.9996    0.0000 C   0  0  3  0  0  0  0  0  0  0  0  0
    7.7780   -0.4927    0.0000 C   0  0  3  0  0  0  0  0  0  0  0  0
    6.0020   -0.4996    0.0000 C   0  0  3  0  0  0  0  0  0  0  0  0
    7.7861    0.5489    0.0000 C   0  0  3  0  0  0  0  0  0  0  0  0
    6.8840    1.0697    0.0000 C   0  0  3  0  0  0  0  0  0  0  0  0
    5.1360   -0.9996    0.0000 C   0  0  0  0  0  0  0  0  0  0  0  0
    6.3772   -2.8315    0.0000 C   0  0  0  0  0  0  0  0  0  0  0  0
    9.5100   -0.5128    0.0000 C   0  0  0  0  0  0  0  0  0  0  0  0
    8.6579    2.0455    0.0000 C   0  0  0  0  0  0  0  0  0  0  0  0
    6.8772   -3.6976    0.0000 C   0  0  0  0  0  0  0  0  0  0  0  0
    6.0122    2.5663    0.0000 C   0  0  0  0  0  0  0  0  0  0  0  0
    5.3772   -2.8315    0.0000 C   0  0  0  0  0  0  0  0  0  0  0  0
    6.3772   -4.5636    0.0000 C   0  0  0  0  0  0  0  0  0  0  0  0
    4.8772   -3.6976    0.0000 C   0  0  0  0  0  0  0  0  0  0  0  0
   10.3702   -1.0227    0.0000 C   0  0  0  0  0  0  0  0  0  0  0  0
    5.3772   -4.5636    0.0000 C   0  0  0  0  0  0  0  0  0  0  0  0
    9.5258    2.5422    0.0000 C   0  0  0  0  0  0  0  0  0  0  0  0
    6.0084    3.5663    0.0000 C   0  0  0  0  0  0  0  0  0  0  0  0
    7.9187   -3.6815    0.0000 C   0  0  0  0  0  0  0  0  0  0  0  0
    6.8840   -5.4736    0.0000 C   0  0  0  0  0  0  0  0  0  0  0  0
    4.8703   -5.4736    0.0000 C   0  0  0  0  0  0  0  0  0  0  0  0
    3.8357   -3.6815    0.0000 C   0  0  0  0  0  0  0  0  0  0  0  0
    8.4464   -4.5795    0.0000 C   0  0  0  0  0  0  0  0  0  0  0  0
   10.3586   -2.0227    0.0000 C   0  0  0  0  0  0  0  0  0  0  0  0
   11.2419   -0.5328    0.0000 C   0  0  0  0  0  0  0  0  0  0  0  0
    7.9256   -5.4816    0.0000 C   0  0  0  0  0  0  0  0  0  0  0  0
   10.3899    2.0388    0.0000 C   0  0  0  0  0  0  0  0  0  0  0  0
    9.5297    3.5422    0.0000 C   0  0  0  0  0  0  0  0  0  0  0  0
    3.8287   -5.4816    0.0000 C   0  0  0  0  0  0  0  0  0  0  0  0
    6.8724    4.0697    0.0000 C   0  0  0  0  0  0  0  0  0  0  0  0
    5.1404    4.0630    0.0000 C   0  0  0  0  0  0  0  0  0  0  0  0
    3.3079   -4.5795    0.0000 C   0  0  0  0  0  0  0  0  0  0  0  0
   12.1021   -1.0428    0.0000 C   0  0  0  0  0  0  0  0  0  0  0  0
   11.2188   -2.5326    0.0000 C   0  0  0  0  0  0  0  0  0  0  0  0
   10.3976    4.0388    0.0000 C   0  0  0  0  0  0  0  0  0  0  0  0
   11.2579    2.5355    0.0000 C   0  0  0  0  0  0  0  0  0  0  0  0
   12.0905   -2.0427    0.0000 C   0  0  0  0  0  0  0  0  0  0  0  0
    5.1366    5.0630    0.0000 C   0  0  0  0  0  0  0  0  0  0  0  0
    6.8686    5.0697    0.0000 C   0  0  0  0  0  0  0  0  0  0  0  0
   11.2617    3.5355    0.0000 C   0  0  0  0  0  0  0  0  0  0  0  0
    6.0006    5.5663    0.0000 C   0  0  0  0  0  0  0  0  0  0  0  0
    7.4026   -1.3137    0.0000 H   0  0  0  0  0  0  0  0  0  0  0  0
    7.7697   -1.1127    0.0000 H   0  0  0  0  0  0  0  0  0  0  0  0
    5.4627   -0.1937    0.0000 H   0  0  0  0  0  0  0  0  0  0  0  0
    8.3212    0.2358    0.0000 H   0  0  0  0  0  0  0  0  0  0  0  0
    7.4203    1.3807    0.0000 H   0  0  0  0  0  0  0  0  0  0  0  0
    4.9755   -0.4007    0.0000 H   0  0  0  0  0  0  0  0  0  0  0  0
    4.5160   -0.9996    0.0000 H   0  0  0  0  0  0  0  0  0  0  0  0
    8.2225   -3.1410    0.0000 H   0  0  0  0  0  0  0  0  0  0  0  0
    3.5319   -3.1410    0.0000 H   0  0  0  0  0  0  0  0  0  0  0  0
    9.8181   -2.3264    0.0000 H   0  0  0  0  0  0  0  0  0  0  0  0
   11.2491    0.0872    0.0000 H   0  0  0  0  0  0  0  0  0  0  0  0
   10.3875    1.4189    0.0000 H   0  0  0  0  0  0  0  0  0  0  0  0
    8.9940    3.8542    0.0000 H   0  0  0  0  0  0  0  0  0  0  0  0
    7.4106    3.7617    0.0000 H   0  0  0  0  0  0  0  0  0  0  0  0
    4.6047    3.7509    0.0000 H   0  0  0  0  0  0  0  0  0  0  0  0
    6.6778   -6.8742    0.0000 H   0  0  0  0  0  0  0  0  0  0  0  0
    5.0766   -6.8742    0.0000 H   0  0  0  0  0  0  0  0  0  0  0  0
    9.7544   -4.0375    0.0000 H   0  0  0  0  0  0  0  0  0  0  0  0
    9.0423   -6.3519    0.0000 H   0  0  0  0  0  0  0  0  0  0  0  0
    2.7121   -6.3519    0.0000 H   0  0  0  0  0  0  0  0  0  0  0  0
    2.0000   -4.0375    0.0000 H   0  0  0  0  0  0  0  0  0  0  0  0
   13.5072   -0.8690    0.0000 H   0  0  0  0  0  0  0  0  0  0  0  0
   11.7405   -3.8488    0.0000 H   0  0  0  0  0  0  0  0  0  0  0  0
    9.8658    5.3509    0.0000 H   0  0  0  0  0  0  0  0  0  0  0  0
   12.6601    2.3401    0.0000 H   0  0  0  0  0  0  0  0  0  0  0  0
   13.4912   -2.2489    0.0000 H   0  0  0  0  0  0  0  0  0  0  0  0
    3.7329    5.2476    0.0000 H   0  0  0  0  0  0  0  0  0  0  0  0
    7.7303    6.1930    0.0000 H   0  0  0  0  0  0  0  0  0  0  0  0
   12.1321    4.6522    0.0000 H   0  0  0  0  0  0  0  0  0  0  0  0
    5.4587    6.8742    0.0000 H   0  0  0  0  0  0  0  0  0  0  0  0
  1 29  1  0  0  0  0
  1 31  1  0  0  0  0
  2 27  1  0  0  0  0
  2 33  1  0  0  0  0
  3 28  1  0  0  0  0
  3 34  1  0  0  0  0
  4 30  1  0  0  0  0
  4 35  1  0  0  0  0
  5 31  1  0  0  0  0
  5 37  1  0  0  0  0
  6 32  1  0  0  0  0
  6 38  1  0  0  0  0
  7 33  2  0  0  0  0
  8 34  2  0  0  0  0
  9 35  2  0  0  0  0
 10 37  2  0  0  0  0
 11 38  2  0  0  0  0
 12 46  1  0  0  0  0
 12 83  1  0  0  0  0
 13 47  1  0  0  0  0
 13 84  1  0  0  0  0
 14 49  1  0  0  0  0
 14 85  1  0  0  0  0
 15 52  1  0  0  0  0
 15 86  1  0  0  0  0
 16 55  1  0  0  0  0
 16 87  1  0  0  0  0
 17 58  1  0  0  0  0
 17 88  1  0  0  0  0
 18 59  1  0  0  0  0
 18 89  1  0  0  0  0
 19 60  1  0  0  0  0
 19 90  1  0  0  0  0
 20 61  1  0  0  0  0
 20 91  1  0  0  0  0
 21 62  1  0  0  0  0
 21 92  1  0  0  0  0
 22 63  1  0  0  0  0
 22 93  1  0  0  0  0
 23 64  1  0  0  0  0
 23 94  1  0  0  0  0
 24 65  1  0  0  0  0
 24 95  1  0  0  0  0
 25 66  1  0  0  0  0
 25 96  1  0  0  0  0
 26 67  1  0  0  0  0
 26 97  1  0  0  0  0
 27 28  1  0  0  0  0
 27 29  1  0  0  0  0
 27 68  1  0  0  0  0
 28 30  1  0  0  0  0
 28 69  1  0  0  0  0
 29 32  1  0  0  0  0
 29 70  1  0  0  0  0
 30 31  1  0  0  0  0
 30 71  1  0  0  0  0
 31 72  1  0  0  0  0
 32 73  1  0  0  0  0
 32 74  1  0  0  0  0
 33 36  1  0  0  0  0
 34 41  1  0  0  0  0
 35 43  1  0  0  0  0
 36 39  1  0  0  0  0
 36 45  2  0  0  0  0
 37 44  1  0  0  0  0
 38 40  1  0  0  0  0
 39 42  1  0  0  0  0
 39 46  2  0  0  0  0
 40 42  1  0  0  0  0
 40 48  2  0  0  0  0
 41 50  2  0  0  0  0
 41 51  1  0  0  0  0
 42 47  2  0  0  0  0
 43 53  2  0  0  0  0
 43 54  1  0  0  0  0
 44 56  2  0  0  0  0
 44 57  1  0  0  0  0
 45 49  1  0  0  0  0
 45 75  1  0  0  0  0
 46 52  1  0  0  0  0
 47 55  1  0  0  0  0
 48 58  1  0  0  0  0
 48 76  1  0  0  0  0
 49 52  2  0  0  0  0
 50 60  1  0  0  0  0
 50 77  1  0  0  0  0
 51 59  2  0  0  0  0
 51 78  1  0  0  0  0
 53 62  1  0  0  0  0
 53 79  1  0  0  0  0
 54 61  2  0  0  0  0
 54 80  1  0  0  0  0
 55 58  2  0  0  0  0
 56 65  1  0  0  0  0
 56 81  1  0  0  0  0
 57 64  2  0  0  0  0
 57 82  1  0  0  0  0
 59 63  1  0  0  0  0
 60 63  2  0  0  0  0
 61 66  1  0  0  0  0
 62 66  2  0  0  0  0
 64 67  1  0  0  0  0
 65 67  2  0  0  0  0
M  END
> <PUBCHEM_COMPOUND_CID>
151590

> <PUBCHEM_COMPOUND_CANONICALIZED>
1

> <PUBCHEM_CACTVS_COMPLEXITY>
1770

> <PUBCHEM_CACTVS_HBOND_ACCEPTOR>
26

> <PUBCHEM_CACTVS_HBOND_DONOR>
15

> <PUBCHEM_CACTVS_ROTATABLE_BOND>
9

> <PUBCHEM_CACTVS_SUBSKEYS>
AAADceB8PgAAAAAAAAAAAAAAAAAAAAAAAAA0YMGDAAAAAAABVAAAGgAACAAADBSwmAMwDoAABgCIAiDSCAACAAAkIAAAiAEGiMgZJzKCNRqicQElwBUPuYfK7PzOoAABCAAYQABAAAIQADCAAAAAAAAAAA==

> <PUBCHEM_IUPAC_OPENEYE_NAME>
[3,4,5,21,22,23-hexahydroxy-8,18-dioxo-12,13-bis[(3,4,5-trihydroxybenzoyl)oxy]-9,14,17-trioxatetracyclo[17.4.0.02,7.010,15]tricosa-1(23),2,4,6,19,21-hexaen-11-yl] 3,4,5-trihydroxybenzoate

> <PUBCHEM_IUPAC_CAS_NAME>
3,4,5-trihydroxybenzoic acid [3,4,5,21,22,23-hexahydroxy-8,18-dioxo-12,13-bis[oxo-(3,4,5-trihydroxyphenyl)methoxy]-9,14,17-trioxatetracyclo[17.4.0.02,7.010,15]tricosa-1(23),2,4,6,19,21-hexaen-11-yl] ester

> <PUBCHEM_IUPAC_NAME_MARKUP>
[3,4,5,21,22,23-hexahydroxy-8,18-dioxo-12,13-bis[(3,4,5-trihydroxybenzoyl)oxy]-9,14,17-trioxatetracyclo[17.4.0.0<SUP>2,7</SUP>.0<SUP>10,15</SUP>]tricosa-1(23),2,4,6,19,21-hexaen-11-yl] 3,4,5-trihydroxybenzoate

> <PUBCHEM_IUPAC_NAME>
[3,4,5,21,22,23-hexahydroxy-8,18-dioxo-12,13-bis[(3,4,5-trihydroxybenzoyl)oxy]-9,14,17-trioxatetracyclo[17.4.0.02,7.010,15]tricosa-1(23),2,4,6,19,21-hexaen-11-yl] 3,4,5-trihydroxybenzoate

> <PUBCHEM_IUPAC_SYSTEMATIC_NAME>
[3,4,5,21,22,23-hexakis(oxidanyl)-8,18-bis(oxidanylidene)-12,13-bis[[3,4,5-tris(oxidanyl)phenyl]carbonyloxy]-9,14,17-trioxatetracyclo[17.4.0.02,7.010,15]tricosa-1(23),2,4,6,19,21-hexaen-11-yl] 3,4,5-tris(oxidanyl)benzoate

> <PUBCHEM_IUPAC_TRADITIONAL_NAME>
3,4,5-trihydroxybenzoic acid (12,13-digalloyloxy-3,4,5,21,22,23-hexahydroxy-8,18-diketo-9,14,17-trioxatetracyclo[17.4.0.02,7.010,15]tricosa-1(23),2,4,6,19,21-hexaen-11-yl) ester

> <PUBCHEM_IUPAC_INCHI>
InChI=1S/C41H30O26/c42-15-1-10(2-16(43)26(15)50)36(57)65-34-33-23(9-62-39(60)13-7-21(48)29(53)31(55)24(13)25-14(40(61)64-33)8-22(49)30(54)32(25)56)63-41(67-38(59)12-5-19(46)28(52)20(47)6-12)35(34)66-37(58)11-3-17(44)27(51)18(45)4-11/h1-8,23,33-35,41-56H,9H2

> <PUBCHEM_IUPAC_INCHIKEY>
JCGHAEBIBSEQAD-UHFFFAOYSA-N

> <PUBCHEM_XLOGP3_AA>
2.4

> <PUBCHEM_EXACT_MASS>
938.102531

> <PUBCHEM_MOLECULAR_FORMULA>
C41H30O26

> <PUBCHEM_MOLECULAR_WEIGHT>
938.7

> <PUBCHEM_OPENEYE_CAN_SMILES>
C1C2C(C(C(C(O2)OC(=O)C3=CC(=C(C(=C3)O)O)O)OC(=O)C4=CC(=C(C(=C4)O)O)O)OC(=O)C5=CC(=C(C(=C5)O)O)O)OC(=O)C6=CC(=C(C(=C6C7=C(C(=C(C=C7C(=O)O1)O)O)O)O)O)O

> <PUBCHEM_OPENEYE_ISO_SMILES>
C1C2C(C(C(C(O2)OC(=O)C3=CC(=C(C(=C3)O)O)O)OC(=O)C4=CC(=C(C(=C4)O)O)O)OC(=O)C5=CC(=C(C(=C5)O)O)O)OC(=O)C6=CC(=C(C(=C6C7=C(C(=C(C=C7C(=O)O1)O)O)O)O)O)O

> <PUBCHEM_CACTVS_TPSA>
444

> <PUBCHEM_MONOISOTOPIC_WEIGHT>
938.102531

> <PUBCHEM_TOTAL_CHARGE>
0

> <PUBCHEM_HEAVY_ATOM_COUNT>
67

> <PUBCHEM_ATOM_DEF_STEREO_COUNT>
0

> <PUBCHEM_ATOM_UDEF_STEREO_COUNT>
5

> <PUBCHEM_BOND_DEF_STEREO_COUNT>
0

> <PUBCHEM_BOND_UDEF_STEREO_COUNT>
0

> <PUBCHEM_ISOTOPIC_ATOM_COUNT>
0

> <PUBCHEM_COMPONENT_COUNT>
1

> <PUBCHEM_CACTVS_TAUTO_COUNT>
-1

> <PUBCHEM_COORDINATE_TYPE>
1
5
255

> <PUBCHEM_BONDANNOTATIONS>
27  2  3
29  32  3
28  3  3
36  39  8
36  45  8
39  46  8
30  4  3
40  42  8
40  48  8
41  50  8
41  51  8
42  47  8
43  53  8
43  54  8
44  56  8
44  57  8
45  49  8
46  52  8
47  55  8
48  58  8
49  52  8
31  5  3
50  60  8
51  59  8
53  62  8
54  61  8
55  58  8
56  65  8
57  64  8
59  63  8
60  63  8
61  66  8
62  66  8
64  67  8
65  67  8

$$$$
