161858
  -OEChem-11202012432D

 71 71  0     0  0  0  0  0  0999 V2000
    2.0000   -7.9400    0.0000 O   0  0  0  0  0  0  0  0  0  0  0  0
    5.4641   -7.9400    0.0000 O   0  0  0  0  0  0  0  0  0  0  0  0
    7.1962    1.0600    0.0000 C   0  0  0  0  0  0  0  0  0  0  0  0
    8.0622    1.5600    0.0000 C   0  0  0  0  0  0  0  0  0  0  0  0
    7.1962    0.0600    0.0000 C   0  0  0  0  0  0  0  0  0  0  0  0
    8.0622    2.5600    0.0000 C   0  0  0  0  0  0  0  0  0  0  0  0
    6.3301   -0.4400    0.0000 C   0  0  0  0  0  0  0  0  0  0  0  0
    8.9282    3.0600    0.0000 C   0  0  0  0  0  0  0  0  0  0  0  0
    6.3301   -1.4400    0.0000 C   0  0  0  0  0  0  0  0  0  0  0  0
    8.9282    4.0600    0.0000 C   0  0  0  0  0  0  0  0  0  0  0  0
    5.4641   -1.9400    0.0000 C   0  0  0  0  0  0  0  0  0  0  0  0
    9.7942    4.5600    0.0000 C   0  0  0  0  0  0  0  0  0  0  0  0
    5.4641   -2.9400    0.0000 C   0  0  0  0  0  0  0  0  0  0  0  0
    9.7942    5.5600    0.0000 C   0  0  0  0  0  0  0  0  0  0  0  0
    4.5981   -3.4400    0.0000 C   0  0  0  0  0  0  0  0  0  0  0  0
   10.6603    6.0600    0.0000 C   0  0  0  0  0  0  0  0  0  0  0  0
    4.5981   -4.4400    0.0000 C   0  0  0  0  0  0  0  0  0  0  0  0
   10.6603    7.0600    0.0000 C   0  0  0  0  0  0  0  0  0  0  0  0
    3.7320   -4.9400    0.0000 C   0  0  0  0  0  0  0  0  0  0  0  0
   11.5263    7.5600    0.0000 C   0  0  0  0  0  0  0  0  0  0  0  0
    3.7320   -5.9400    0.0000 C   0  0  0  0  0  0  0  0  0  0  0  0
   11.5263    8.5600    0.0000 C   0  0  0  0  0  0  0  0  0  0  0  0
    4.5981   -6.4400    0.0000 C   0  0  0  0  0  0  0  0  0  0  0  0
    2.8660   -6.4400    0.0000 C   0  0  0  0  0  0  0  0  0  0  0  0
    2.8660   -7.4400    0.0000 C   0  0  0  0  0  0  0  0  0  0  0  0
    4.5981   -7.4400    0.0000 C   0  0  0  0  0  0  0  0  0  0  0  0
    3.7320   -7.9400    0.0000 C   0  0  0  0  0  0  0  0  0  0  0  0
    6.9841    1.6426    0.0000 H   0  0  0  0  0  0  0  0  0  0  0  0
    6.5856    0.9523    0.0000 H   0  0  0  0  0  0  0  0  0  0  0  0
    8.2742    0.9774    0.0000 H   0  0  0  0  0  0  0  0  0  0  0  0
    8.6728    1.6677    0.0000 H   0  0  0  0  0  0  0  0  0  0  0  0
    7.4082   -0.5226    0.0000 H   0  0  0  0  0  0  0  0  0  0  0  0
    7.8067    0.1677    0.0000 H   0  0  0  0  0  0  0  0  0  0  0  0
    7.8501    3.1426    0.0000 H   0  0  0  0  0  0  0  0  0  0  0  0
    7.4516    2.4523    0.0000 H   0  0  0  0  0  0  0  0  0  0  0  0
    6.1181    0.1426    0.0000 H   0  0  0  0  0  0  0  0  0  0  0  0
    5.7196   -0.5477    0.0000 H   0  0  0  0  0  0  0  0  0  0  0  0
    9.1403    2.4774    0.0000 H   0  0  0  0  0  0  0  0  0  0  0  0
    9.5388    3.1677    0.0000 H   0  0  0  0  0  0  0  0  0  0  0  0
    6.5422   -2.0226    0.0000 H   0  0  0  0  0  0  0  0  0  0  0  0
    6.9407   -1.3323    0.0000 H   0  0  0  0  0  0  0  0  0  0  0  0
    8.7162    4.6426    0.0000 H   0  0  0  0  0  0  0  0  0  0  0  0
    8.3176    3.9523    0.0000 H   0  0  0  0  0  0  0  0  0  0  0  0
    5.2520   -1.3574    0.0000 H   0  0  0  0  0  0  0  0  0  0  0  0
    4.8535   -2.0477    0.0000 H   0  0  0  0  0  0  0  0  0  0  0  0
   10.0063    3.9774    0.0000 H   0  0  0  0  0  0  0  0  0  0  0  0
   10.4048    4.6677    0.0000 H   0  0  0  0  0  0  0  0  0  0  0  0
    5.6762   -3.5226    0.0000 H   0  0  0  0  0  0  0  0  0  0  0  0
    6.0747   -2.8323    0.0000 H   0  0  0  0  0  0  0  0  0  0  0  0
    9.5822    6.1426    0.0000 H   0  0  0  0  0  0  0  0  0  0  0  0
    9.1836    5.4523    0.0000 H   0  0  0  0  0  0  0  0  0  0  0  0
    4.3860   -2.8574    0.0000 H   0  0  0  0  0  0  0  0  0  0  0  0
    3.9875   -3.5477    0.0000 H   0  0  0  0  0  0  0  0  0  0  0  0
   10.8723    5.4774    0.0000 H   0  0  0  0  0  0  0  0  0  0  0  0
   11.2708    6.1677    0.0000 H   0  0  0  0  0  0  0  0  0  0  0  0
    4.8101   -5.0226    0.0000 H   0  0  0  0  0  0  0  0  0  0  0  0
    5.2087   -4.3323    0.0000 H   0  0  0  0  0  0  0  0  0  0  0  0
   10.4482    7.6426    0.0000 H   0  0  0  0  0  0  0  0  0  0  0  0
   10.0497    6.9523    0.0000 H   0  0  0  0  0  0  0  0  0  0  0  0
    3.5200   -4.3574    0.0000 H   0  0  0  0  0  0  0  0  0  0  0  0
    3.1215   -5.0477    0.0000 H   0  0  0  0  0  0  0  0  0  0  0  0
   11.7383    6.9774    0.0000 H   0  0  0  0  0  0  0  0  0  0  0  0
   12.1369    7.6677    0.0000 H   0  0  0  0  0  0  0  0  0  0  0  0
   12.1463    8.5600    0.0000 H   0  0  0  0  0  0  0  0  0  0  0  0
   11.5263    9.1800    0.0000 H   0  0  0  0  0  0  0  0  0  0  0  0
   10.9063    8.5600    0.0000 H   0  0  0  0  0  0  0  0  0  0  0  0
    5.1350   -6.1300    0.0000 H   0  0  0  0  0  0  0  0  0  0  0  0
    2.3291   -6.1300    0.0000 H   0  0  0  0  0  0  0  0  0  0  0  0
    3.7320   -8.5600    0.0000 H   0  0  0  0  0  0  0  0  0  0  0  0
    2.0000   -8.5600    0.0000 H   0  0  0  0  0  0  0  0  0  0  0  0
    5.4641   -8.5600    0.0000 H   0  0  0  0  0  0  0  0  0  0  0  0
  1 25  1  0  0  0  0
  1 70  1  0  0  0  0
  2 26  1  0  0  0  0
  2 71  1  0  0  0  0
  3  4  1  0  0  0  0
  3  5  1  0  0  0  0
  3 28  1  0  0  0  0
  3 29  1  0  0  0  0
  4  6  1  0  0  0  0
  4 30  1  0  0  0  0
  4 31  1  0  0  0  0
  5  7  1  0  0  0  0
  5 32  1  0  0  0  0
  5 33  1  0  0  0  0
  6  8  1  0  0  0  0
  6 34  1  0  0  0  0
  6 35  1  0  0  0  0
  7  9  1  0  0  0  0
  7 36  1  0  0  0  0
  7 37  1  0  0  0  0
  8 10  1  0  0  0  0
  8 38  1  0  0  0  0
  8 39  1  0  0  0  0
  9 11  1  0  0  0  0
  9 40  1  0  0  0  0
  9 41  1  0  0  0  0
 10 12  1  0  0  0  0
 10 42  1  0  0  0  0
 10 43  1  0  0  0  0
 11 13  1  0  0  0  0
 11 44  1  0  0  0  0
 11 45  1  0  0  0  0
 12 14  1  0  0  0  0
 12 46  1  0  0  0  0
 12 47  1  0  0  0  0
 13 15  1  0  0  0  0
 13 48  1  0  0  0  0
 13 49  1  0  0  0  0
 14 16  1  0  0  0  0
 14 50  1  0  0  0  0
 14 51  1  0  0  0  0
 15 17  1  0  0  0  0
 15 52  1  0  0  0  0
 15 53  1  0  0  0  0
 16 18  1  0  0  0  0
 16 54  1  0  0  0  0
 16 55  1  0  0  0  0
 17 19  1  0  0  0  0
 17 56  1  0  0  0  0
 17 57  1  0  0  0  0
 18 20  1  0  0  0  0
 18 58  1  0  0  0  0
 18 59  1  0  0  0  0
 19 21  1  0  0  0  0
 19 60  1  0  0  0  0
 19 61  1  0  0  0  0
 20 22  1  0  0  0  0
 20 62  1  0  0  0  0
 20 63  1  0  0  0  0
 21 23  2  0  0  0  0
 21 24  1  0  0  0  0
 22 64  1  0  0  0  0
 22 65  1  0  0  0  0
 22 66  1  0  0  0  0
 23 26  1  0  0  0  0
 23 67  1  0  0  0  0
 24 25  2  0  0  0  0
 24 68  1  0  0  0  0
 25 27  1  0  0  0  0
 26 27  2  0  0  0  0
 27 69  1  0  0  0  0
M  END
> <PUBCHEM_COMPOUND_CID>
161858

> <PUBCHEM_COMPOUND_CANONICALIZED>
1

> <PUBCHEM_CACTVS_COMPLEXITY>
295

> <PUBCHEM_CACTVS_HBOND_ACCEPTOR>
2

> <PUBCHEM_CACTVS_HBOND_DONOR>
2

> <PUBCHEM_CACTVS_ROTATABLE_BOND>
18

> <PUBCHEM_CACTVS_SUBSKEYS>
AAADcfB4MAAAAAAAAAAAAAAAAAAAAAAAAAAwAAAAAAAAAAABAAAAGgAACAAADASAmAAyBoAAAgCAAiBCAAACAAAgIAAAiAAGCIgIJyKCERKAcAAlwBUImAeA4PQOAAABCAAAAAAAAAIQAAAAAAAAAAAAAA==

> <PUBCHEM_IUPAC_OPENEYE_NAME>
5-nonadecylbenzene-1,3-diol

> <PUBCHEM_IUPAC_CAS_NAME>
5-nonadecylbenzene-1,3-diol

> <PUBCHEM_IUPAC_NAME_MARKUP>
5-nonadecylbenzene-1,3-diol

> <PUBCHEM_IUPAC_NAME>
5-nonadecylbenzene-1,3-diol

> <PUBCHEM_IUPAC_SYSTEMATIC_NAME>
5-nonadecylbenzene-1,3-diol

> <PUBCHEM_IUPAC_TRADITIONAL_NAME>
5-nonadecylresorcinol

> <PUBCHEM_IUPAC_INCHI>
InChI=1S/C25H44O2/c1-2-3-4-5-6-7-8-9-10-11-12-13-14-15-16-17-18-19-23-20-24(26)22-25(27)21-23/h20-22,26-27H,2-19H2,1H3

> <PUBCHEM_IUPAC_INCHIKEY>
PUNOCEUUYUXUGR-UHFFFAOYSA-N

> <PUBCHEM_XLOGP3_AA>
11.2

> <PUBCHEM_EXACT_MASS>
376.334131

> <PUBCHEM_MOLECULAR_FORMULA>
C25H44O2

> <PUBCHEM_MOLECULAR_WEIGHT>
376.6

> <PUBCHEM_OPENEYE_CAN_SMILES>
CCCCCCCCCCCCCCCCCCCC1=CC(=CC(=C1)O)O

> <PUBCHEM_OPENEYE_ISO_SMILES>
CCCCCCCCCCCCCCCCCCCC1=CC(=CC(=C1)O)O

> <PUBCHEM_CACTVS_TPSA>
40.5

> <PUBCHEM_MONOISOTOPIC_WEIGHT>
376.334131

> <PUBCHEM_TOTAL_CHARGE>
0

> <PUBCHEM_HEAVY_ATOM_COUNT>
27

> <PUBCHEM_ATOM_DEF_STEREO_COUNT>
0

> <PUBCHEM_ATOM_UDEF_STEREO_COUNT>
0

> <PUBCHEM_BOND_DEF_STEREO_COUNT>
0

> <PUBCHEM_BOND_UDEF_STEREO_COUNT>
0

> <PUBCHEM_ISOTOPIC_ATOM_COUNT>
0

> <PUBCHEM_COMPONENT_COUNT>
1

> <PUBCHEM_CACTVS_TAUTO_COUNT>
-1

> <PUBCHEM_COORDINATE_TYPE>
1
5
255

> <PUBCHEM_BONDANNOTATIONS>
21  23  8
21  24  8
23  26  8
24  25  8
25  27  8
26  27  8

$$$$
