155462
  -OEChem-11202012452D

 83 83  0     0  0  0  0  0  0999 V2000
    2.0000   -9.4400    0.0000 O   0  0  0  0  0  0  0  0  0  0  0  0
    5.4641   -9.4400    0.0000 O   0  0  0  0  0  0  0  0  0  0  0  0
    8.0622    1.0600    0.0000 C   0  0  0  0  0  0  0  0  0  0  0  0
    8.9282    1.5600    0.0000 C   0  0  0  0  0  0  0  0  0  0  0  0
    8.0622    0.0600    0.0000 C   0  0  0  0  0  0  0  0  0  0  0  0
    8.9282    2.5600    0.0000 C   0  0  0  0  0  0  0  0  0  0  0  0
    7.1962   -0.4400    0.0000 C   0  0  0  0  0  0  0  0  0  0  0  0
    9.7942    3.0600    0.0000 C   0  0  0  0  0  0  0  0  0  0  0  0
    7.1962   -1.4400    0.0000 C   0  0  0  0  0  0  0  0  0  0  0  0
    9.7942    4.0600    0.0000 C   0  0  0  0  0  0  0  0  0  0  0  0
    6.3301   -1.9400    0.0000 C   0  0  0  0  0  0  0  0  0  0  0  0
   10.6603    4.5600    0.0000 C   0  0  0  0  0  0  0  0  0  0  0  0
    6.3301   -2.9400    0.0000 C   0  0  0  0  0  0  0  0  0  0  0  0
   10.6603    5.5600    0.0000 C   0  0  0  0  0  0  0  0  0  0  0  0
    5.4641   -3.4400    0.0000 C   0  0  0  0  0  0  0  0  0  0  0  0
   11.5263    6.0600    0.0000 C   0  0  0  0  0  0  0  0  0  0  0  0
    5.4641   -4.4400    0.0000 C   0  0  0  0  0  0  0  0  0  0  0  0
   11.5263    7.0600    0.0000 C   0  0  0  0  0  0  0  0  0  0  0  0
    4.5981   -4.9400    0.0000 C   0  0  0  0  0  0  0  0  0  0  0  0
   12.3923    7.5600    0.0000 C   0  0  0  0  0  0  0  0  0  0  0  0
    4.5981   -5.9400    0.0000 C   0  0  0  0  0  0  0  0  0  0  0  0
   12.3923    8.5600    0.0000 C   0  0  0  0  0  0  0  0  0  0  0  0
    3.7320   -6.4400    0.0000 C   0  0  0  0  0  0  0  0  0  0  0  0
   13.2583    9.0600    0.0000 C   0  0  0  0  0  0  0  0  0  0  0  0
    3.7320   -7.4400    0.0000 C   0  0  0  0  0  0  0  0  0  0  0  0
   13.2583   10.0600    0.0000 C   0  0  0  0  0  0  0  0  0  0  0  0
    4.5981   -7.9400    0.0000 C   0  0  0  0  0  0  0  0  0  0  0  0
    2.8660   -7.9400    0.0000 C   0  0  0  0  0  0  0  0  0  0  0  0
    2.8660   -8.9400    0.0000 C   0  0  0  0  0  0  0  0  0  0  0  0
    4.5981   -8.9400    0.0000 C   0  0  0  0  0  0  0  0  0  0  0  0
    3.7320   -9.4400    0.0000 C   0  0  0  0  0  0  0  0  0  0  0  0
    7.8501    1.6426    0.0000 H   0  0  0  0  0  0  0  0  0  0  0  0
    7.4516    0.9523    0.0000 H   0  0  0  0  0  0  0  0  0  0  0  0
    9.1403    0.9774    0.0000 H   0  0  0  0  0  0  0  0  0  0  0  0
    9.5388    1.6677    0.0000 H   0  0  0  0  0  0  0  0  0  0  0  0
    8.2742   -0.5226    0.0000 H   0  0  0  0  0  0  0  0  0  0  0  0
    8.6728    0.1677    0.0000 H   0  0  0  0  0  0  0  0  0  0  0  0
    8.7162    3.1426    0.0000 H   0  0  0  0  0  0  0  0  0  0  0  0
    8.3176    2.4523    0.0000 H   0  0  0  0  0  0  0  0  0  0  0  0
    6.9841    0.1426    0.0000 H   0  0  0  0  0  0  0  0  0  0  0  0
    6.5856   -0.5477    0.0000 H   0  0  0  0  0  0  0  0  0  0  0  0
   10.0063    2.4774    0.0000 H   0  0  0  0  0  0  0  0  0  0  0  0
   10.4048    3.1677    0.0000 H   0  0  0  0  0  0  0  0  0  0  0  0
    7.4082   -2.0226    0.0000 H   0  0  0  0  0  0  0  0  0  0  0  0
    7.8067   -1.3323    0.0000 H   0  0  0  0  0  0  0  0  0  0  0  0
    9.5822    4.6426    0.0000 H   0  0  0  0  0  0  0  0  0  0  0  0
    9.1836    3.9523    0.0000 H   0  0  0  0  0  0  0  0  0  0  0  0
    6.1181   -1.3574    0.0000 H   0  0  0  0  0  0  0  0  0  0  0  0
    5.7196   -2.0477    0.0000 H   0  0  0  0  0  0  0  0  0  0  0  0
   10.8723    3.9774    0.0000 H   0  0  0  0  0  0  0  0  0  0  0  0
   11.2708    4.6677    0.0000 H   0  0  0  0  0  0  0  0  0  0  0  0
    6.5422   -3.5226    0.0000 H   0  0  0  0  0  0  0  0  0  0  0  0
    6.9407   -2.8323    0.0000 H   0  0  0  0  0  0  0  0  0  0  0  0
   10.4482    6.1426    0.0000 H   0  0  0  0  0  0  0  0  0  0  0  0
   10.0497    5.4523    0.0000 H   0  0  0  0  0  0  0  0  0  0  0  0
    5.2520   -2.8574    0.0000 H   0  0  0  0  0  0  0  0  0  0  0  0
    4.8535   -3.5477    0.0000 H   0  0  0  0  0  0  0  0  0  0  0  0
   11.7383    5.4774    0.0000 H   0  0  0  0  0  0  0  0  0  0  0  0
   12.1369    6.1677    0.0000 H   0  0  0  0  0  0  0  0  0  0  0  0
    5.6762   -5.0226    0.0000 H   0  0  0  0  0  0  0  0  0  0  0  0
    6.0747   -4.3323    0.0000 H   0  0  0  0  0  0  0  0  0  0  0  0
   11.3142    7.6426    0.0000 H   0  0  0  0  0  0  0  0  0  0  0  0
   10.9157    6.9523    0.0000 H   0  0  0  0  0  0  0  0  0  0  0  0
    4.3860   -4.3574    0.0000 H   0  0  0  0  0  0  0  0  0  0  0  0
    3.9875   -5.0477    0.0000 H   0  0  0  0  0  0  0  0  0  0  0  0
   12.6044    6.9774    0.0000 H   0  0  0  0  0  0  0  0  0  0  0  0
   13.0029    7.6677    0.0000 H   0  0  0  0  0  0  0  0  0  0  0  0
    4.8101   -6.5226    0.0000 H   0  0  0  0  0  0  0  0  0  0  0  0
    5.2087   -5.8323    0.0000 H   0  0  0  0  0  0  0  0  0  0  0  0
   12.1803    9.1426    0.0000 H   0  0  0  0  0  0  0  0  0  0  0  0
   11.7817    8.4523    0.0000 H   0  0  0  0  0  0  0  0  0  0  0  0
    3.5200   -5.8574    0.0000 H   0  0  0  0  0  0  0  0  0  0  0  0
    3.1215   -6.5477    0.0000 H   0  0  0  0  0  0  0  0  0  0  0  0
   13.4704    8.4774    0.0000 H   0  0  0  0  0  0  0  0  0  0  0  0
   13.8689    9.1677    0.0000 H   0  0  0  0  0  0  0  0  0  0  0  0
   13.8783   10.0600    0.0000 H   0  0  0  0  0  0  0  0  0  0  0  0
   13.2583   10.6800    0.0000 H   0  0  0  0  0  0  0  0  0  0  0  0
   12.6383   10.0600    0.0000 H   0  0  0  0  0  0  0  0  0  0  0  0
    5.1350   -7.6300    0.0000 H   0  0  0  0  0  0  0  0  0  0  0  0
    2.3291   -7.6300    0.0000 H   0  0  0  0  0  0  0  0  0  0  0  0
    3.7320  -10.0600    0.0000 H   0  0  0  0  0  0  0  0  0  0  0  0
    2.0000  -10.0600    0.0000 H   0  0  0  0  0  0  0  0  0  0  0  0
    5.4641  -10.0600    0.0000 H   0  0  0  0  0  0  0  0  0  0  0  0
  1 29  1  0  0  0  0
  1 82  1  0  0  0  0
  2 30  1  0  0  0  0
  2 83  1  0  0  0  0
  3  4  1  0  0  0  0
  3  5  1  0  0  0  0
  3 32  1  0  0  0  0
  3 33  1  0  0  0  0
  4  6  1  0  0  0  0
  4 34  1  0  0  0  0
  4 35  1  0  0  0  0
  5  7  1  0  0  0  0
  5 36  1  0  0  0  0
  5 37  1  0  0  0  0
  6  8  1  0  0  0  0
  6 38  1  0  0  0  0
  6 39  1  0  0  0  0
  7  9  1  0  0  0  0
  7 40  1  0  0  0  0
  7 41  1  0  0  0  0
  8 10  1  0  0  0  0
  8 42  1  0  0  0  0
  8 43  1  0  0  0  0
  9 11  1  0  0  0  0
  9 44  1  0  0  0  0
  9 45  1  0  0  0  0
 10 12  1  0  0  0  0
 10 46  1  0  0  0  0
 10 47  1  0  0  0  0
 11 13  1  0  0  0  0
 11 48  1  0  0  0  0
 11 49  1  0  0  0  0
 12 14  1  0  0  0  0
 12 50  1  0  0  0  0
 12 51  1  0  0  0  0
 13 15  1  0  0  0  0
 13 52  1  0  0  0  0
 13 53  1  0  0  0  0
 14 16  1  0  0  0  0
 14 54  1  0  0  0  0
 14 55  1  0  0  0  0
 15 17  1  0  0  0  0
 15 56  1  0  0  0  0
 15 57  1  0  0  0  0
 16 18  1  0  0  0  0
 16 58  1  0  0  0  0
 16 59  1  0  0  0  0
 17 19  1  0  0  0  0
 17 60  1  0  0  0  0
 17 61  1  0  0  0  0
 18 20  1  0  0  0  0
 18 62  1  0  0  0  0
 18 63  1  0  0  0  0
 19 21  1  0  0  0  0
 19 64  1  0  0  0  0
 19 65  1  0  0  0  0
 20 22  1  0  0  0  0
 20 66  1  0  0  0  0
 20 67  1  0  0  0  0
 21 23  1  0  0  0  0
 21 68  1  0  0  0  0
 21 69  1  0  0  0  0
 22 24  1  0  0  0  0
 22 70  1  0  0  0  0
 22 71  1  0  0  0  0
 23 25  1  0  0  0  0
 23 72  1  0  0  0  0
 23 73  1  0  0  0  0
 24 26  1  0  0  0  0
 24 74  1  0  0  0  0
 24 75  1  0  0  0  0
 25 27  2  0  0  0  0
 25 28  1  0  0  0  0
 26 76  1  0  0  0  0
 26 77  1  0  0  0  0
 26 78  1  0  0  0  0
 27 30  1  0  0  0  0
 27 79  1  0  0  0  0
 28 29  2  0  0  0  0
 28 80  1  0  0  0  0
 29 31  1  0  0  0  0
 30 31  2  0  0  0  0
 31 81  1  0  0  0  0
M  END
> <PUBCHEM_COMPOUND_CID>
155462

> <PUBCHEM_COMPOUND_CANONICALIZED>
1

> <PUBCHEM_CACTVS_COMPLEXITY>
347

> <PUBCHEM_CACTVS_HBOND_ACCEPTOR>
2

> <PUBCHEM_CACTVS_HBOND_DONOR>
2

> <PUBCHEM_CACTVS_ROTATABLE_BOND>
22

> <PUBCHEM_CACTVS_SUBSKEYS>
AAADcfB4MAAAAAAAAAAAAAAAAAAAAAAAAAAwAAAAAAAAAAABAAAAGgAACAAADASAmAAyBoAAAgCAAiBCAAACAAAgIAAAiAAGCIgIJyKCERKAcAAlwBUImAeA4PQOAAABCAAAAAAAAAIQAAAAAAAAAAAAAA==

> <PUBCHEM_IUPAC_OPENEYE_NAME>
5-tricosylbenzene-1,3-diol

> <PUBCHEM_IUPAC_CAS_NAME>
5-tricosylbenzene-1,3-diol

> <PUBCHEM_IUPAC_NAME_MARKUP>
5-tricosylbenzene-1,3-diol

> <PUBCHEM_IUPAC_NAME>
5-tricosylbenzene-1,3-diol

> <PUBCHEM_IUPAC_SYSTEMATIC_NAME>
5-tricosylbenzene-1,3-diol

> <PUBCHEM_IUPAC_TRADITIONAL_NAME>
5-tricosylresorcinol

> <PUBCHEM_IUPAC_INCHI>
InChI=1S/C29H52O2/c1-2-3-4-5-6-7-8-9-10-11-12-13-14-15-16-17-18-19-20-21-22-23-27-24-28(30)26-29(31)25-27/h24-26,30-31H,2-23H2,1H3

> <PUBCHEM_IUPAC_INCHIKEY>
OHTBGMREZYLZQD-UHFFFAOYSA-N

> <PUBCHEM_XLOGP3_AA>
13.4

> <PUBCHEM_EXACT_MASS>
432.396731

> <PUBCHEM_MOLECULAR_FORMULA>
C29H52O2

> <PUBCHEM_MOLECULAR_WEIGHT>
432.7

> <PUBCHEM_OPENEYE_CAN_SMILES>
CCCCCCCCCCCCCCCCCCCCCCCC1=CC(=CC(=C1)O)O

> <PUBCHEM_OPENEYE_ISO_SMILES>
CCCCCCCCCCCCCCCCCCCCCCCC1=CC(=CC(=C1)O)O

> <PUBCHEM_CACTVS_TPSA>
40.5

> <PUBCHEM_MONOISOTOPIC_WEIGHT>
432.396731

> <PUBCHEM_TOTAL_CHARGE>
0

> <PUBCHEM_HEAVY_ATOM_COUNT>
31

> <PUBCHEM_ATOM_DEF_STEREO_COUNT>
0

> <PUBCHEM_ATOM_UDEF_STEREO_COUNT>
0

> <PUBCHEM_BOND_DEF_STEREO_COUNT>
0

> <PUBCHEM_BOND_UDEF_STEREO_COUNT>
0

> <PUBCHEM_ISOTOPIC_ATOM_COUNT>
0

> <PUBCHEM_COMPONENT_COUNT>
1

> <PUBCHEM_CACTVS_TAUTO_COUNT>
-1

> <PUBCHEM_COORDINATE_TYPE>
1
5
255

> <PUBCHEM_BONDANNOTATIONS>
25  27  8
25  28  8
27  30  8
28  29  8
29  31  8
30  31  8

$$$$
