155461
  -OEChem-11202011202D

 77 77  0     0  0  0  0  0  0999 V2000
    2.0000   -8.6900    0.0000 O   0  0  0  0  0  0  0  0  0  0  0  0
    5.4641   -8.6900    0.0000 O   0  0  0  0  0  0  0  0  0  0  0  0
    8.0622    0.8100    0.0000 C   0  0  0  0  0  0  0  0  0  0  0  0
    8.0622    1.8100    0.0000 C   0  0  0  0  0  0  0  0  0  0  0  0
    7.1962    0.3100    0.0000 C   0  0  0  0  0  0  0  0  0  0  0  0
    8.9282    2.3100    0.0000 C   0  0  0  0  0  0  0  0  0  0  0  0
    7.1962   -0.6900    0.0000 C   0  0  0  0  0  0  0  0  0  0  0  0
    8.9282    3.3100    0.0000 C   0  0  0  0  0  0  0  0  0  0  0  0
    6.3301   -1.1900    0.0000 C   0  0  0  0  0  0  0  0  0  0  0  0
    9.7942    3.8100    0.0000 C   0  0  0  0  0  0  0  0  0  0  0  0
    6.3301   -2.1900    0.0000 C   0  0  0  0  0  0  0  0  0  0  0  0
    9.7942    4.8100    0.0000 C   0  0  0  0  0  0  0  0  0  0  0  0
    5.4641   -2.6900    0.0000 C   0  0  0  0  0  0  0  0  0  0  0  0
   10.6603    5.3100    0.0000 C   0  0  0  0  0  0  0  0  0  0  0  0
    5.4641   -3.6900    0.0000 C   0  0  0  0  0  0  0  0  0  0  0  0
   10.6603    6.3100    0.0000 C   0  0  0  0  0  0  0  0  0  0  0  0
    4.5981   -4.1900    0.0000 C   0  0  0  0  0  0  0  0  0  0  0  0
   11.5263    6.8100    0.0000 C   0  0  0  0  0  0  0  0  0  0  0  0
    4.5981   -5.1900    0.0000 C   0  0  0  0  0  0  0  0  0  0  0  0
   11.5263    7.8100    0.0000 C   0  0  0  0  0  0  0  0  0  0  0  0
    3.7320   -5.6900    0.0000 C   0  0  0  0  0  0  0  0  0  0  0  0
   12.3923    8.3100    0.0000 C   0  0  0  0  0  0  0  0  0  0  0  0
    3.7320   -6.6900    0.0000 C   0  0  0  0  0  0  0  0  0  0  0  0
   12.3923    9.3100    0.0000 C   0  0  0  0  0  0  0  0  0  0  0  0
    4.5981   -7.1900    0.0000 C   0  0  0  0  0  0  0  0  0  0  0  0
    2.8660   -7.1900    0.0000 C   0  0  0  0  0  0  0  0  0  0  0  0
    2.8660   -8.1900    0.0000 C   0  0  0  0  0  0  0  0  0  0  0  0
    4.5981   -8.1900    0.0000 C   0  0  0  0  0  0  0  0  0  0  0  0
    3.7320   -8.6900    0.0000 C   0  0  0  0  0  0  0  0  0  0  0  0
    8.2742    0.2274    0.0000 H   0  0  0  0  0  0  0  0  0  0  0  0
    8.6728    0.9177    0.0000 H   0  0  0  0  0  0  0  0  0  0  0  0
    7.8501    2.3926    0.0000 H   0  0  0  0  0  0  0  0  0  0  0  0
    7.4516    1.7023    0.0000 H   0  0  0  0  0  0  0  0  0  0  0  0
    6.9841    0.8926    0.0000 H   0  0  0  0  0  0  0  0  0  0  0  0
    6.5856    0.2023    0.0000 H   0  0  0  0  0  0  0  0  0  0  0  0
    9.1403    1.7274    0.0000 H   0  0  0  0  0  0  0  0  0  0  0  0
    9.5388    2.4177    0.0000 H   0  0  0  0  0  0  0  0  0  0  0  0
    7.4082   -1.2726    0.0000 H   0  0  0  0  0  0  0  0  0  0  0  0
    7.8067   -0.5823    0.0000 H   0  0  0  0  0  0  0  0  0  0  0  0
    8.7162    3.8926    0.0000 H   0  0  0  0  0  0  0  0  0  0  0  0
    8.3176    3.2023    0.0000 H   0  0  0  0  0  0  0  0  0  0  0  0
    6.1181   -0.6074    0.0000 H   0  0  0  0  0  0  0  0  0  0  0  0
    5.7196   -1.2977    0.0000 H   0  0  0  0  0  0  0  0  0  0  0  0
   10.0063    3.2274    0.0000 H   0  0  0  0  0  0  0  0  0  0  0  0
   10.4048    3.9177    0.0000 H   0  0  0  0  0  0  0  0  0  0  0  0
    6.5422   -2.7726    0.0000 H   0  0  0  0  0  0  0  0  0  0  0  0
    6.9407   -2.0823    0.0000 H   0  0  0  0  0  0  0  0  0  0  0  0
    9.5822    5.3926    0.0000 H   0  0  0  0  0  0  0  0  0  0  0  0
    9.1836    4.7023    0.0000 H   0  0  0  0  0  0  0  0  0  0  0  0
    5.2520   -2.1074    0.0000 H   0  0  0  0  0  0  0  0  0  0  0  0
    4.8535   -2.7977    0.0000 H   0  0  0  0  0  0  0  0  0  0  0  0
   10.8723    4.7274    0.0000 H   0  0  0  0  0  0  0  0  0  0  0  0
   11.2708    5.4177    0.0000 H   0  0  0  0  0  0  0  0  0  0  0  0
    5.6762   -4.2726    0.0000 H   0  0  0  0  0  0  0  0  0  0  0  0
    6.0747   -3.5823    0.0000 H   0  0  0  0  0  0  0  0  0  0  0  0
   10.4482    6.8926    0.0000 H   0  0  0  0  0  0  0  0  0  0  0  0
   10.0497    6.2023    0.0000 H   0  0  0  0  0  0  0  0  0  0  0  0
    4.3860   -3.6074    0.0000 H   0  0  0  0  0  0  0  0  0  0  0  0
    3.9875   -4.2977    0.0000 H   0  0  0  0  0  0  0  0  0  0  0  0
   11.7383    6.2274    0.0000 H   0  0  0  0  0  0  0  0  0  0  0  0
   12.1369    6.9177    0.0000 H   0  0  0  0  0  0  0  0  0  0  0  0
    4.8101   -5.7726    0.0000 H   0  0  0  0  0  0  0  0  0  0  0  0
    5.2087   -5.0823    0.0000 H   0  0  0  0  0  0  0  0  0  0  0  0
   11.3142    8.3926    0.0000 H   0  0  0  0  0  0  0  0  0  0  0  0
   10.9157    7.7023    0.0000 H   0  0  0  0  0  0  0  0  0  0  0  0
    3.5200   -5.1074    0.0000 H   0  0  0  0  0  0  0  0  0  0  0  0
    3.1215   -5.7977    0.0000 H   0  0  0  0  0  0  0  0  0  0  0  0
   12.6044    7.7274    0.0000 H   0  0  0  0  0  0  0  0  0  0  0  0
   13.0029    8.4177    0.0000 H   0  0  0  0  0  0  0  0  0  0  0  0
   13.0123    9.3100    0.0000 H   0  0  0  0  0  0  0  0  0  0  0  0
   12.3923    9.9300    0.0000 H   0  0  0  0  0  0  0  0  0  0  0  0
   11.7723    9.3100    0.0000 H   0  0  0  0  0  0  0  0  0  0  0  0
    5.1350   -6.8800    0.0000 H   0  0  0  0  0  0  0  0  0  0  0  0
    2.3291   -6.8800    0.0000 H   0  0  0  0  0  0  0  0  0  0  0  0
    3.7320   -9.3100    0.0000 H   0  0  0  0  0  0  0  0  0  0  0  0
    2.0000   -9.3100    0.0000 H   0  0  0  0  0  0  0  0  0  0  0  0
    5.4641   -9.3100    0.0000 H   0  0  0  0  0  0  0  0  0  0  0  0
  1 27  1  0  0  0  0
  1 76  1  0  0  0  0
  2 28  1  0  0  0  0
  2 77  1  0  0  0  0
  3  4  1  0  0  0  0
  3  5  1  0  0  0  0
  3 30  1  0  0  0  0
  3 31  1  0  0  0  0
  4  6  1  0  0  0  0
  4 32  1  0  0  0  0
  4 33  1  0  0  0  0
  5  7  1  0  0  0  0
  5 34  1  0  0  0  0
  5 35  1  0  0  0  0
  6  8  1  0  0  0  0
  6 36  1  0  0  0  0
  6 37  1  0  0  0  0
  7  9  1  0  0  0  0
  7 38  1  0  0  0  0
  7 39  1  0  0  0  0
  8 10  1  0  0  0  0
  8 40  1  0  0  0  0
  8 41  1  0  0  0  0
  9 11  1  0  0  0  0
  9 42  1  0  0  0  0
  9 43  1  0  0  0  0
 10 12  1  0  0  0  0
 10 44  1  0  0  0  0
 10 45  1  0  0  0  0
 11 13  1  0  0  0  0
 11 46  1  0  0  0  0
 11 47  1  0  0  0  0
 12 14  1  0  0  0  0
 12 48  1  0  0  0  0
 12 49  1  0  0  0  0
 13 15  1  0  0  0  0
 13 50  1  0  0  0  0
 13 51  1  0  0  0  0
 14 16  1  0  0  0  0
 14 52  1  0  0  0  0
 14 53  1  0  0  0  0
 15 17  1  0  0  0  0
 15 54  1  0  0  0  0
 15 55  1  0  0  0  0
 16 18  1  0  0  0  0
 16 56  1  0  0  0  0
 16 57  1  0  0  0  0
 17 19  1  0  0  0  0
 17 58  1  0  0  0  0
 17 59  1  0  0  0  0
 18 20  1  0  0  0  0
 18 60  1  0  0  0  0
 18 61  1  0  0  0  0
 19 21  1  0  0  0  0
 19 62  1  0  0  0  0
 19 63  1  0  0  0  0
 20 22  1  0  0  0  0
 20 64  1  0  0  0  0
 20 65  1  0  0  0  0
 21 23  1  0  0  0  0
 21 66  1  0  0  0  0
 21 67  1  0  0  0  0
 22 24  1  0  0  0  0
 22 68  1  0  0  0  0
 22 69  1  0  0  0  0
 23 25  2  0  0  0  0
 23 26  1  0  0  0  0
 24 70  1  0  0  0  0
 24 71  1  0  0  0  0
 24 72  1  0  0  0  0
 25 28  1  0  0  0  0
 25 73  1  0  0  0  0
 26 27  2  0  0  0  0
 26 74  1  0  0  0  0
 27 29  1  0  0  0  0
 28 29  2  0  0  0  0
 29 75  1  0  0  0  0
M  END
> <PUBCHEM_COMPOUND_CID>
155461

> <PUBCHEM_COMPOUND_CANONICALIZED>
1

> <PUBCHEM_CACTVS_COMPLEXITY>
321

> <PUBCHEM_CACTVS_HBOND_ACCEPTOR>
2

> <PUBCHEM_CACTVS_HBOND_DONOR>
2

> <PUBCHEM_CACTVS_ROTATABLE_BOND>
20

> <PUBCHEM_CACTVS_SUBSKEYS>
AAADcfB4MAAAAAAAAAAAAAAAAAAAAAAAAAAwAAAAAAAAAAABAAAAGgAACAAADASAmAAyBoAAAgCAAiBCAAACAAAgIAAAiAAGCIgIJyKCERKAcAAlwBUImAeA4PQOAAABCAAAAAAAAAIQAAAAAAAAAAAAAA==

> <PUBCHEM_IUPAC_OPENEYE_NAME>
5-henicosylbenzene-1,3-diol

> <PUBCHEM_IUPAC_CAS_NAME>
5-heneicosylbenzene-1,3-diol

> <PUBCHEM_IUPAC_NAME_MARKUP>
5-henicosylbenzene-1,3-diol

> <PUBCHEM_IUPAC_NAME>
5-henicosylbenzene-1,3-diol

> <PUBCHEM_IUPAC_SYSTEMATIC_NAME>
5-henicosylbenzene-1,3-diol

> <PUBCHEM_IUPAC_TRADITIONAL_NAME>
5-heneicosylresorcinol

> <PUBCHEM_IUPAC_INCHI>
InChI=1S/C27H48O2/c1-2-3-4-5-6-7-8-9-10-11-12-13-14-15-16-17-18-19-20-21-25-22-26(28)24-27(29)23-25/h22-24,28-29H,2-21H2,1H3

> <PUBCHEM_IUPAC_INCHIKEY>
BLHLKJLSYHEOGY-UHFFFAOYSA-N

> <PUBCHEM_XLOGP3_AA>
12.3

> <PUBCHEM_EXACT_MASS>
404.365431

> <PUBCHEM_MOLECULAR_FORMULA>
C27H48O2

> <PUBCHEM_MOLECULAR_WEIGHT>
404.7

> <PUBCHEM_OPENEYE_CAN_SMILES>
CCCCCCCCCCCCCCCCCCCCCC1=CC(=CC(=C1)O)O

> <PUBCHEM_OPENEYE_ISO_SMILES>
CCCCCCCCCCCCCCCCCCCCCC1=CC(=CC(=C1)O)O

> <PUBCHEM_CACTVS_TPSA>
40.5

> <PUBCHEM_MONOISOTOPIC_WEIGHT>
404.365431

> <PUBCHEM_TOTAL_CHARGE>
0

> <PUBCHEM_HEAVY_ATOM_COUNT>
29

> <PUBCHEM_ATOM_DEF_STEREO_COUNT>
0

> <PUBCHEM_ATOM_UDEF_STEREO_COUNT>
0

> <PUBCHEM_BOND_DEF_STEREO_COUNT>
0

> <PUBCHEM_BOND_UDEF_STEREO_COUNT>
0

> <PUBCHEM_ISOTOPIC_ATOM_COUNT>
0

> <PUBCHEM_COMPONENT_COUNT>
1

> <PUBCHEM_CACTVS_TAUTO_COUNT>
-1

> <PUBCHEM_COORDINATE_TYPE>
1
5
255

> <PUBCHEM_BONDANNOTATIONS>
23  25  8
23  26  8
25  28  8
26  27  8
27  29  8
28  29  8

$$$$
