10258711
  -OEChem-11202011172D

134133  0     0  0  0  0  0  0999 V2000
   15.8564    0.7500    0.0000 O   0  0  0  0  0  0  0  0  0  0  0  0
   14.9904   -0.7500    0.0000 O   0  0  0  0  0  0  0  0  0  0  0  0
   27.9808    0.7500    0.0000 C   0  0  0  0  0  0  0  0  0  0  0  0
   28.8468    0.2500    0.0000 C   0  0  0  0  0  0  0  0  0  0  0  0
   27.1147    0.2500    0.0000 C   0  0  0  0  0  0  0  0  0  0  0  0
   29.7128    0.7500    0.0000 C   0  0  0  0  0  0  0  0  0  0  0  0
   26.2487    0.7500    0.0000 C   0  0  0  0  0  0  0  0  0  0  0  0
   30.5788    0.2500    0.0000 C   0  0  0  0  0  0  0  0  0  0  0  0
   25.3827    0.2500    0.0000 C   0  0  0  0  0  0  0  0  0  0  0  0
   31.4449    0.7500    0.0000 C   0  0  0  0  0  0  0  0  0  0  0  0
   24.5167    0.7500    0.0000 C   0  0  0  0  0  0  0  0  0  0  0  0
   23.6506    0.2500    0.0000 C   0  0  0  0  0  0  0  0  0  0  0  0
   32.3109    0.2500    0.0000 C   0  0  0  0  0  0  0  0  0  0  0  0
   22.7846    0.7500    0.0000 C   0  0  0  0  0  0  0  0  0  0  0  0
   33.1769    0.7500    0.0000 C   0  0  0  0  0  0  0  0  0  0  0  0
   21.9186    0.2500    0.0000 C   0  0  0  0  0  0  0  0  0  0  0  0
   34.0429    0.2500    0.0000 C   0  0  0  0  0  0  0  0  0  0  0  0
   21.0526    0.7500    0.0000 C   0  0  0  0  0  0  0  0  0  0  0  0
   34.9090    0.7500    0.0000 C   0  0  0  0  0  0  0  0  0  0  0  0
   20.1865    0.2500    0.0000 C   0  0  0  0  0  0  0  0  0  0  0  0
   35.7750    0.2500    0.0000 C   0  0  0  0  0  0  0  0  0  0  0  0
    8.9282    0.7500    0.0000 C   0  0  0  0  0  0  0  0  0  0  0  0
    8.0622    0.2500    0.0000 C   0  0  0  0  0  0  0  0  0  0  0  0
   19.3205    0.7500    0.0000 C   0  0  0  0  0  0  0  0  0  0  0  0
   36.6410    0.7500    0.0000 C   0  0  0  0  0  0  0  0  0  0  0  0
    9.7942    0.2500    0.0000 C   0  0  0  0  0  0  0  0  0  0  0  0
    7.1962    0.7500    0.0000 C   0  0  0  0  0  0  0  0  0  0  0  0
   10.6603    0.7500    0.0000 C   0  0  0  0  0  0  0  0  0  0  0  0
    6.3301    0.2500    0.0000 C   0  0  0  0  0  0  0  0  0  0  0  0
   11.5263    0.2500    0.0000 C   0  0  0  0  0  0  0  0  0  0  0  0
   18.4545    0.2500    0.0000 C   0  0  0  0  0  0  0  0  0  0  0  0
   37.5070    0.2500    0.0000 C   0  0  0  0  0  0  0  0  0  0  0  0
    5.4641    0.7500    0.0000 C   0  0  0  0  0  0  0  0  0  0  0  0
   12.3923    0.7500    0.0000 C   0  0  0  0  0  0  0  0  0  0  0  0
    4.5981    0.2500    0.0000 C   0  0  0  0  0  0  0  0  0  0  0  0
   17.5885    0.7500    0.0000 C   0  0  0  0  0  0  0  0  0  0  0  0
   38.3731    0.7500    0.0000 C   0  0  0  0  0  0  0  0  0  0  0  0
   13.2583    0.2500    0.0000 C   0  0  0  0  0  0  0  0  0  0  0  0
    3.7320    0.7500    0.0000 C   0  0  0  0  0  0  0  0  0  0  0  0
   16.7224    0.2500    0.0000 C   0  0  0  0  0  0  0  0  0  0  0  0
   14.1244    0.7500    0.0000 C   0  0  0  0  0  0  0  0  0  0  0  0
   39.2391    0.2500    0.0000 C   0  0  0  0  0  0  0  0  0  0  0  0
    2.8660    0.2500    0.0000 C   0  0  0  0  0  0  0  0  0  0  0  0
   14.9904    0.2500    0.0000 C   0  0  0  0  0  0  0  0  0  0  0  0
   40.1051    0.7500    0.0000 C   0  0  0  0  0  0  0  0  0  0  0  0
    2.0000    0.7500    0.0000 C   0  0  0  0  0  0  0  0  0  0  0  0
   28.3793    1.2250    0.0000 H   0  0  0  0  0  0  0  0  0  0  0  0
   27.5822    1.2250    0.0000 H   0  0  0  0  0  0  0  0  0  0  0  0
   28.4483   -0.2249    0.0000 H   0  0  0  0  0  0  0  0  0  0  0  0
   29.2453   -0.2249    0.0000 H   0  0  0  0  0  0  0  0  0  0  0  0
   26.7162   -0.2249    0.0000 H   0  0  0  0  0  0  0  0  0  0  0  0
   27.5133   -0.2249    0.0000 H   0  0  0  0  0  0  0  0  0  0  0  0
   30.1113    1.2250    0.0000 H   0  0  0  0  0  0  0  0  0  0  0  0
   29.3143    1.2250    0.0000 H   0  0  0  0  0  0  0  0  0  0  0  0
   26.6472    1.2250    0.0000 H   0  0  0  0  0  0  0  0  0  0  0  0
   25.8502    1.2250    0.0000 H   0  0  0  0  0  0  0  0  0  0  0  0
   30.1803   -0.2249    0.0000 H   0  0  0  0  0  0  0  0  0  0  0  0
   30.9774   -0.2249    0.0000 H   0  0  0  0  0  0  0  0  0  0  0  0
   24.9842   -0.2249    0.0000 H   0  0  0  0  0  0  0  0  0  0  0  0
   25.7812   -0.2249    0.0000 H   0  0  0  0  0  0  0  0  0  0  0  0
   31.8434    1.2250    0.0000 H   0  0  0  0  0  0  0  0  0  0  0  0
   31.0463    1.2250    0.0000 H   0  0  0  0  0  0  0  0  0  0  0  0
   24.9152    1.2250    0.0000 H   0  0  0  0  0  0  0  0  0  0  0  0
   24.1181    1.2250    0.0000 H   0  0  0  0  0  0  0  0  0  0  0  0
   23.2521   -0.2249    0.0000 H   0  0  0  0  0  0  0  0  0  0  0  0
   24.0492   -0.2249    0.0000 H   0  0  0  0  0  0  0  0  0  0  0  0
   31.9124   -0.2249    0.0000 H   0  0  0  0  0  0  0  0  0  0  0  0
   32.7094   -0.2249    0.0000 H   0  0  0  0  0  0  0  0  0  0  0  0
   23.1831    1.2250    0.0000 H   0  0  0  0  0  0  0  0  0  0  0  0
   22.3861    1.2250    0.0000 H   0  0  0  0  0  0  0  0  0  0  0  0
   33.5754    1.2250    0.0000 H   0  0  0  0  0  0  0  0  0  0  0  0
   32.7784    1.2250    0.0000 H   0  0  0  0  0  0  0  0  0  0  0  0
   21.5201   -0.2249    0.0000 H   0  0  0  0  0  0  0  0  0  0  0  0
   22.3171   -0.2249    0.0000 H   0  0  0  0  0  0  0  0  0  0  0  0
   33.6444   -0.2249    0.0000 H   0  0  0  0  0  0  0  0  0  0  0  0
   34.4415   -0.2249    0.0000 H   0  0  0  0  0  0  0  0  0  0  0  0
   21.4511    1.2250    0.0000 H   0  0  0  0  0  0  0  0  0  0  0  0
   20.6540    1.2250    0.0000 H   0  0  0  0  0  0  0  0  0  0  0  0
   35.3075    1.2250    0.0000 H   0  0  0  0  0  0  0  0  0  0  0  0
   34.5104    1.2250    0.0000 H   0  0  0  0  0  0  0  0  0  0  0  0
   19.7880   -0.2249    0.0000 H   0  0  0  0  0  0  0  0  0  0  0  0
   20.5851   -0.2249    0.0000 H   0  0  0  0  0  0  0  0  0  0  0  0
   35.3765   -0.2249    0.0000 H   0  0  0  0  0  0  0  0  0  0  0  0
   36.1735   -0.2249    0.0000 H   0  0  0  0  0  0  0  0  0  0  0  0
    9.3267    1.2250    0.0000 H   0  0  0  0  0  0  0  0  0  0  0  0
    8.5297    1.2250    0.0000 H   0  0  0  0  0  0  0  0  0  0  0  0
    7.6636   -0.2249    0.0000 H   0  0  0  0  0  0  0  0  0  0  0  0
    8.4607   -0.2249    0.0000 H   0  0  0  0  0  0  0  0  0  0  0  0
   19.7190    1.2250    0.0000 H   0  0  0  0  0  0  0  0  0  0  0  0
   18.9220    1.2250    0.0000 H   0  0  0  0  0  0  0  0  0  0  0  0
    9.3957   -0.2249    0.0000 H   0  0  0  0  0  0  0  0  0  0  0  0
   10.1928   -0.2249    0.0000 H   0  0  0  0  0  0  0  0  0  0  0  0
   37.0395    1.2250    0.0000 H   0  0  0  0  0  0  0  0  0  0  0  0
   36.2425    1.2250    0.0000 H   0  0  0  0  0  0  0  0  0  0  0  0
    7.5947    1.2250    0.0000 H   0  0  0  0  0  0  0  0  0  0  0  0
    6.7976    1.2250    0.0000 H   0  0  0  0  0  0  0  0  0  0  0  0
   11.0588    1.2250    0.0000 H   0  0  0  0  0  0  0  0  0  0  0  0
   10.2617    1.2250    0.0000 H   0  0  0  0  0  0  0  0  0  0  0  0
    5.9316   -0.2249    0.0000 H   0  0  0  0  0  0  0  0  0  0  0  0
    6.7287   -0.2249    0.0000 H   0  0  0  0  0  0  0  0  0  0  0  0
   11.1278   -0.2249    0.0000 H   0  0  0  0  0  0  0  0  0  0  0  0
   11.9248   -0.2249    0.0000 H   0  0  0  0  0  0  0  0  0  0  0  0
   18.0560   -0.2249    0.0000 H   0  0  0  0  0  0  0  0  0  0  0  0
   18.8530   -0.2249    0.0000 H   0  0  0  0  0  0  0  0  0  0  0  0
   37.1085   -0.2249    0.0000 H   0  0  0  0  0  0  0  0  0  0  0  0
   37.9056   -0.2249    0.0000 H   0  0  0  0  0  0  0  0  0  0  0  0
    5.8626    1.2250    0.0000 H   0  0  0  0  0  0  0  0  0  0  0  0
    5.0656    1.2250    0.0000 H   0  0  0  0  0  0  0  0  0  0  0  0
   12.7908    1.2250    0.0000 H   0  0  0  0  0  0  0  0  0  0  0  0
   11.9938    1.2250    0.0000 H   0  0  0  0  0  0  0  0  0  0  0  0
    4.1996   -0.2249    0.0000 H   0  0  0  0  0  0  0  0  0  0  0  0
    4.9966   -0.2249    0.0000 H   0  0  0  0  0  0  0  0  0  0  0  0
   17.9870    1.2250    0.0000 H   0  0  0  0  0  0  0  0  0  0  0  0
   17.1899    1.2250    0.0000 H   0  0  0  0  0  0  0  0  0  0  0  0
   38.7716    1.2250    0.0000 H   0  0  0  0  0  0  0  0  0  0  0  0
   37.9745    1.2250    0.0000 H   0  0  0  0  0  0  0  0  0  0  0  0
   12.8598   -0.2249    0.0000 H   0  0  0  0  0  0  0  0  0  0  0  0
   13.6569   -0.2249    0.0000 H   0  0  0  0  0  0  0  0  0  0  0  0
    4.1306    1.2250    0.0000 H   0  0  0  0  0  0  0  0  0  0  0  0
    3.3335    1.2250    0.0000 H   0  0  0  0  0  0  0  0  0  0  0  0
   14.5229    1.2250    0.0000 H   0  0  0  0  0  0  0  0  0  0  0  0
   13.7258    1.2250    0.0000 H   0  0  0  0  0  0  0  0  0  0  0  0
   16.3239   -0.2249    0.0000 H   0  0  0  0  0  0  0  0  0  0  0  0
   17.1210   -0.2249    0.0000 H   0  0  0  0  0  0  0  0  0  0  0  0
   38.8406   -0.2249    0.0000 H   0  0  0  0  0  0  0  0  0  0  0  0
   39.6376   -0.2249    0.0000 H   0  0  0  0  0  0  0  0  0  0  0  0
    2.4675   -0.2249    0.0000 H   0  0  0  0  0  0  0  0  0  0  0  0
    3.2646   -0.2249    0.0000 H   0  0  0  0  0  0  0  0  0  0  0  0
   40.4151    0.2131    0.0000 H   0  0  0  0  0  0  0  0  0  0  0  0
   40.6421    1.0600    0.0000 H   0  0  0  0  0  0  0  0  0  0  0  0
   39.7951    1.2869    0.0000 H   0  0  0  0  0  0  0  0  0  0  0  0
    2.3100    1.2869    0.0000 H   0  0  0  0  0  0  0  0  0  0  0  0
    1.4631    1.0600    0.0000 H   0  0  0  0  0  0  0  0  0  0  0  0
    1.6900    0.2131    0.0000 H   0  0  0  0  0  0  0  0  0  0  0  0
  1 40  1  0  0  0  0
  1 44  1  0  0  0  0
  2 44  2  0  0  0  0
  3  4  1  0  0  0  0
  3  5  1  0  0  0  0
  3 47  1  0  0  0  0
  3 48  1  0  0  0  0
  4  6  1  0  0  0  0
  4 49  1  0  0  0  0
  4 50  1  0  0  0  0
  5  7  1  0  0  0  0
  5 51  1  0  0  0  0
  5 52  1  0  0  0  0
  6  8  1  0  0  0  0
  6 53  1  0  0  0  0
  6 54  1  0  0  0  0
  7  9  1  0  0  0  0
  7 55  1  0  0  0  0
  7 56  1  0  0  0  0
  8 10  1  0  0  0  0
  8 57  1  0  0  0  0
  8 58  1  0  0  0  0
  9 11  1  0  0  0  0
  9 59  1  0  0  0  0
  9 60  1  0  0  0  0
 10 13  1  0  0  0  0
 10 61  1  0  0  0  0
 10 62  1  0  0  0  0
 11 12  1  0  0  0  0
 11 63  1  0  0  0  0
 11 64  1  0  0  0  0
 12 14  1  0  0  0  0
 12 65  1  0  0  0  0
 12 66  1  0  0  0  0
 13 15  1  0  0  0  0
 13 67  1  0  0  0  0
 13 68  1  0  0  0  0
 14 16  1  0  0  0  0
 14 69  1  0  0  0  0
 14 70  1  0  0  0  0
 15 17  1  0  0  0  0
 15 71  1  0  0  0  0
 15 72  1  0  0  0  0
 16 18  1  0  0  0  0
 16 73  1  0  0  0  0
 16 74  1  0  0  0  0
 17 19  1  0  0  0  0
 17 75  1  0  0  0  0
 17 76  1  0  0  0  0
 18 20  1  0  0  0  0
 18 77  1  0  0  0  0
 18 78  1  0  0  0  0
 19 21  1  0  0  0  0
 19 79  1  0  0  0  0
 19 80  1  0  0  0  0
 20 24  1  0  0  0  0
 20 81  1  0  0  0  0
 20 82  1  0  0  0  0
 21 25  1  0  0  0  0
 21 83  1  0  0  0  0
 21 84  1  0  0  0  0
 22 23  1  0  0  0  0
 22 26  1  0  0  0  0
 22 85  1  0  0  0  0
 22 86  1  0  0  0  0
 23 27  1  0  0  0  0
 23 87  1  0  0  0  0
 23 88  1  0  0  0  0
 24 31  1  0  0  0  0
 24 89  1  0  0  0  0
 24 90  1  0  0  0  0
 25 32  1  0  0  0  0
 25 93  1  0  0  0  0
 25 94  1  0  0  0  0
 26 28  1  0  0  0  0
 26 91  1  0  0  0  0
 26 92  1  0  0  0  0
 27 29  1  0  0  0  0
 27 95  1  0  0  0  0
 27 96  1  0  0  0  0
 28 30  1  0  0  0  0
 28 97  1  0  0  0  0
 28 98  1  0  0  0  0
 29 33  1  0  0  0  0
 29 99  1  0  0  0  0
 29100  1  0  0  0  0
 30 34  1  0  0  0  0
 30101  1  0  0  0  0
 30102  1  0  0  0  0
 31 36  1  0  0  0  0
 31103  1  0  0  0  0
 31104  1  0  0  0  0
 32 37  1  0  0  0  0
 32105  1  0  0  0  0
 32106  1  0  0  0  0
 33 35  1  0  0  0  0
 33107  1  0  0  0  0
 33108  1  0  0  0  0
 34 38  1  0  0  0  0
 34109  1  0  0  0  0
 34110  1  0  0  0  0
 35 39  1  0  0  0  0
 35111  1  0  0  0  0
 35112  1  0  0  0  0
 36 40  1  0  0  0  0
 36113  1  0  0  0  0
 36114  1  0  0  0  0
 37 42  1  0  0  0  0
 37115  1  0  0  0  0
 37116  1  0  0  0  0
 38 41  1  0  0  0  0
 38117  1  0  0  0  0
 38118  1  0  0  0  0
 39 43  1  0  0  0  0
 39119  1  0  0  0  0
 39120  1  0  0  0  0
 40123  1  0  0  0  0
 40124  1  0  0  0  0
 41 44  1  0  0  0  0
 41121  1  0  0  0  0
 41122  1  0  0  0  0
 42 45  1  0  0  0  0
 42125  1  0  0  0  0
 42126  1  0  0  0  0
 43 46  1  0  0  0  0
 43127  1  0  0  0  0
 43128  1  0  0  0  0
 45129  1  0  0  0  0
 45130  1  0  0  0  0
 45131  1  0  0  0  0
 46132  1  0  0  0  0
 46133  1  0  0  0  0
 46134  1  0  0  0  0
M  END
> <PUBCHEM_COMPOUND_CID>
10258711

> <PUBCHEM_COMPOUND_CANONICALIZED>
1

> <PUBCHEM_CACTVS_COMPLEXITY>
544

> <PUBCHEM_CACTVS_HBOND_ACCEPTOR>
2

> <PUBCHEM_CACTVS_HBOND_DONOR>
0

> <PUBCHEM_CACTVS_ROTATABLE_BOND>
42

> <PUBCHEM_CACTVS_SUBSKEYS>
AAADcfB8MAAAAAAAAAAAAAAAAAAAAAAAAAAAAAAAAAAAAAAAAAAAGgAAAAAACACggAICCAAABAAIAACQCAAAAAAAAAAAAAEAAAAAABIAAAACAAAEAAAAAAGIyKCAAAAAAAAAAAAAAAAAAAAAAAAAAAAAAA==

> <PUBCHEM_IUPAC_OPENEYE_NAME>
octacosyl hexadecanoate

> <PUBCHEM_IUPAC_CAS_NAME>
hexadecanoic acid octacosyl ester

> <PUBCHEM_IUPAC_NAME_MARKUP>
octacosyl hexadecanoate

> <PUBCHEM_IUPAC_NAME>
octacosyl hexadecanoate

> <PUBCHEM_IUPAC_SYSTEMATIC_NAME>
octacosyl hexadecanoate

> <PUBCHEM_IUPAC_TRADITIONAL_NAME>
palmitic acid montanyl ester

> <PUBCHEM_IUPAC_INCHI>
InChI=1S/C44H88O2/c1-3-5-7-9-11-13-15-17-18-19-20-21-22-23-24-25-26-27-28-29-31-33-35-37-39-41-43-46-44(45)42-40-38-36-34-32-30-16-14-12-10-8-6-4-2/h3-43H2,1-2H3

> <PUBCHEM_IUPAC_INCHIKEY>
DUUVLSQFLIAPFQ-UHFFFAOYSA-N

> <PUBCHEM_XLOGP3_AA>
21.7

> <PUBCHEM_EXACT_MASS>
648.678432

> <PUBCHEM_MOLECULAR_FORMULA>
C44H88O2

> <PUBCHEM_MOLECULAR_WEIGHT>
649.2

> <PUBCHEM_OPENEYE_CAN_SMILES>
CCCCCCCCCCCCCCCCCCCCCCCCCCCCOC(=O)CCCCCCCCCCCCCCC

> <PUBCHEM_OPENEYE_ISO_SMILES>
CCCCCCCCCCCCCCCCCCCCCCCCCCCCOC(=O)CCCCCCCCCCCCCCC

> <PUBCHEM_CACTVS_TPSA>
26.3

> <PUBCHEM_MONOISOTOPIC_WEIGHT>
648.678432

> <PUBCHEM_TOTAL_CHARGE>
0

> <PUBCHEM_HEAVY_ATOM_COUNT>
46

> <PUBCHEM_ATOM_DEF_STEREO_COUNT>
0

> <PUBCHEM_ATOM_UDEF_STEREO_COUNT>
0

> <PUBCHEM_BOND_DEF_STEREO_COUNT>
0

> <PUBCHEM_BOND_UDEF_STEREO_COUNT>
0

> <PUBCHEM_ISOTOPIC_ATOM_COUNT>
0

> <PUBCHEM_COMPONENT_COUNT>
1

> <PUBCHEM_CACTVS_TAUTO_COUNT>
-1

> <PUBCHEM_COORDINATE_TYPE>
1
5
255

$$$$
