10033855
  -OEChem-09292003132D

117122  0     1  0  0  0  0  0999 V2000
   12.2583   -1.8143    0.0000 O   0  0  0  0  0  0  0  0  0  0  0  0
   13.2583   -2.8143    0.0000 O   0  0  0  0  0  0  0  0  0  0  0  0
   11.5263   -2.8143    0.0000 O   0  0  0  0  0  0  0  0  0  0  0  0
   14.5184   -0.5542    0.0000 O   0  0  0  0  0  0  0  0  0  0  0  0
   12.7583    0.7246    0.0000 O   0  0  0  0  0  0  0  0  0  0  0  0
   14.9525   -1.4542    0.0000 O   0  0  0  0  0  0  0  0  0  0  0  0
   13.2583   -4.8143    0.0000 O   0  0  0  0  0  0  0  0  0  0  0  0
   11.5263   -5.8143    0.0000 O   0  0  0  0  0  0  0  0  0  0  0  0
    9.7942   -4.8143    0.0000 O   0  0  0  0  0  0  0  0  0  0  0  0
   10.7903    0.4239    0.0000 O   0  0  0  0  0  0  0  0  0  0  0  0
    8.9282   -3.3143    0.0000 O   0  0  0  0  0  0  0  0  0  0  0  0
   13.9832    1.0931    0.0000 O   0  0  0  0  0  0  0  0  0  0  0  0
   16.1115   -2.7413    0.0000 O   0  0  0  0  0  0  0  0  0  0  0  0
    9.0961    0.0638    0.0000 O   0  0  0  0  0  0  0  0  0  0  0  0
    8.0622   -1.8143    0.0000 O   0  0  0  0  0  0  0  0  0  0  0  0
   19.6895    2.9472    0.0000 O   0  0  0  0  0  0  0  0  0  0  0  0
   20.5704    1.2734    0.0000 O   0  0  0  0  0  0  0  0  0  0  0  0
    7.8487    5.9327    0.0000 O   0  0  0  0  0  0  0  0  0  0  0  0
    2.8660   -2.8143    0.0000 O   0  0  0  0  0  0  0  0  0  0  0  0
    2.8660   -4.8143    0.0000 O   0  0  0  0  0  0  0  0  0  0  0  0
   13.2583   -1.8143    0.0000 C   0  0  1  0  0  0  0  0  0  0  0  0
   13.5673   -0.8632    0.0000 C   0  0  2  0  0  0  0  0  0  0  0  0
   12.7583   -0.2754    0.0000 C   0  0  1  0  0  0  0  0  0  0  0  0
   11.9493   -0.8632    0.0000 C   0  0  1  0  0  0  0  0  0  0  0  0
   12.3923   -3.3143    0.0000 C   0  0  1  0  0  0  0  0  0  0  0  0
   12.3923   -4.3143    0.0000 C   0  0  1  0  0  0  0  0  0  0  0  0
   14.2094   -2.1233    0.0000 C   0  0  0  0  0  0  0  0  0  0  0  0
   11.5263   -4.8143    0.0000 C   0  0  2  0  0  0  0  0  0  0  0  0
   10.6603   -4.3143    0.0000 C   0  0  1  0  0  0  0  0  0  0  0  0
   10.6603   -3.3143    0.0000 C   0  0  1  0  0  0  0  0  0  0  0  0
   10.9983   -0.5542    0.0000 C   0  0  0  0  0  0  0  0  0  0  0  0
    9.7942   -2.8143    0.0000 C   0  0  0  0  0  0  0  0  0  0  0  0
   14.7263    0.4239    0.0000 C   0  0  0  0  0  0  0  0  0  0  0  0
   15.9036   -1.7632    0.0000 C   0  0  0  0  0  0  0  0  0  0  0  0
    9.8393    0.7329    0.0000 C   0  0  0  0  0  0  0  0  0  0  0  0
   15.6774    0.7329    0.0000 C   0  0  0  0  0  0  0  0  0  0  0  0
    8.0622   -2.8143    0.0000 C   0  0  0  0  0  0  0  0  0  0  0  0
   16.6467   -1.0941    0.0000 C   0  0  0  0  0  0  0  0  0  0  0  0
    9.6314    1.7111    0.0000 C   0  0  0  0  0  0  0  0  0  0  0  0
   15.8853    1.7111    0.0000 C   0  0  0  0  0  0  0  0  0  0  0  0
    7.1962   -3.3143    0.0000 C   0  0  0  0  0  0  0  0  0  0  0  0
   17.5978   -1.4031    0.0000 C   0  0  0  0  0  0  0  0  0  0  0  0
   16.8363    2.0201    0.0000 C   0  0  0  0  0  0  0  0  0  0  0  0
    8.6803    2.0201    0.0000 C   0  0  0  0  0  0  0  0  0  0  0  0
   18.3409   -0.7340    0.0000 C   0  0  0  0  0  0  0  0  0  0  0  0
    6.3301   -2.8143    0.0000 C   0  0  0  0  0  0  0  0  0  0  0  0
   17.0443    2.9983    0.0000 C   0  0  0  0  0  0  0  0  0  0  0  0
   17.5795    1.3510    0.0000 C   0  0  0  0  0  0  0  0  0  0  0  0
    8.4724    2.9983    0.0000 C   0  0  0  0  0  0  0  0  0  0  0  0
    5.4641   -3.3143    0.0000 C   0  0  0  0  0  0  0  0  0  0  0  0
   18.1330    0.2442    0.0000 C   0  0  0  0  0  0  0  0  0  0  0  0
   19.2920   -1.0430    0.0000 C   0  0  0  0  0  0  0  0  0  0  0  0
   17.9953    3.3073    0.0000 C   0  0  0  0  0  0  0  0  0  0  0  0
   18.5305    1.6600    0.0000 C   0  0  0  0  0  0  0  0  0  0  0  0
    7.5214    3.3073    0.0000 C   0  0  0  0  0  0  0  0  0  0  0  0
    9.2156    3.6674    0.0000 C   0  0  0  0  0  0  0  0  0  0  0  0
   18.7385    2.6381    0.0000 C   0  0  0  0  0  0  0  0  0  0  0  0
   18.8762    0.9133    0.0000 C   0  0  0  0  0  0  0  0  0  0  0  0
   20.0351   -0.3738    0.0000 C   0  0  0  0  0  0  0  0  0  0  0  0
    4.5981   -2.8143    0.0000 C   0  0  0  0  0  0  0  0  0  0  0  0
    5.4641   -4.3143    0.0000 C   0  0  0  0  0  0  0  0  0  0  0  0
   19.8272    0.6043    0.0000 C   0  0  0  0  0  0  0  0  0  0  0  0
    7.3134    4.2854    0.0000 C   0  0  0  0  0  0  0  0  0  0  0  0
    9.0076    4.6455    0.0000 C   0  0  0  0  0  0  0  0  0  0  0  0
    8.0566    4.9546    0.0000 C   0  0  0  0  0  0  0  0  0  0  0  0
    3.7320   -3.3143    0.0000 C   0  0  0  0  0  0  0  0  0  0  0  0
    4.5981   -4.8143    0.0000 C   0  0  0  0  0  0  0  0  0  0  0  0
    3.7320   -4.3143    0.0000 C   0  0  0  0  0  0  0  0  0  0  0  0
    2.0000   -3.3143    0.0000 C   0  0  0  0  0  0  0  0  0  0  0  0
   14.0058   -1.3016    0.0000 H   0  0  0  0  0  0  0  0  0  0  0  0
   13.3108    0.0060    0.0000 H   0  0  0  0  0  0  0  0  0  0  0  0
   11.5109   -1.3016    0.0000 H   0  0  0  0  0  0  0  0  0  0  0  0
   12.9292   -3.6243    0.0000 H   0  0  0  0  0  0  0  0  0  0  0  0
   12.3923   -4.9343    0.0000 H   0  0  0  0  0  0  0  0  0  0  0  0
   13.9183   -2.6707    0.0000 H   0  0  0  0  0  0  0  0  0  0  0  0
   14.6980   -2.5050    0.0000 H   0  0  0  0  0  0  0  0  0  0  0  0
   12.0632   -5.1243    0.0000 H   0  0  0  0  0  0  0  0  0  0  0  0
   10.6603   -4.9343    0.0000 H   0  0  0  0  0  0  0  0  0  0  0  0
   10.6603   -2.6943    0.0000 H   0  0  0  0  0  0  0  0  0  0  0  0
   10.3786   -0.5759    0.0000 H   0  0  0  0  0  0  0  0  0  0  0  0
   10.9120   -1.1682    0.0000 H   0  0  0  0  0  0  0  0  0  0  0  0
   12.2214    1.0346    0.0000 H   0  0  0  0  0  0  0  0  0  0  0  0
   10.1928   -2.3393    0.0000 H   0  0  0  0  0  0  0  0  0  0  0  0
    9.3957   -2.3393    0.0000 H   0  0  0  0  0  0  0  0  0  0  0  0
   13.2583   -5.4343    0.0000 H   0  0  0  0  0  0  0  0  0  0  0  0
   10.9893   -6.1243    0.0000 H   0  0  0  0  0  0  0  0  0  0  0  0
    9.7942   -5.4343    0.0000 H   0  0  0  0  0  0  0  0  0  0  0  0
   16.1381    0.3181    0.0000 H   0  0  0  0  0  0  0  0  0  0  0  0
   16.5178   -0.4876    0.0000 H   0  0  0  0  0  0  0  0  0  0  0  0
   10.0921    2.1260    0.0000 H   0  0  0  0  0  0  0  0  0  0  0  0
   15.4245    2.1260    0.0000 H   0  0  0  0  0  0  0  0  0  0  0  0
    7.1962   -3.9343    0.0000 H   0  0  0  0  0  0  0  0  0  0  0  0
   17.7267   -2.0095    0.0000 H   0  0  0  0  0  0  0  0  0  0  0  0
    8.2196    1.6052    0.0000 H   0  0  0  0  0  0  0  0  0  0  0  0
    6.3301   -2.1943    0.0000 H   0  0  0  0  0  0  0  0  0  0  0  0
   16.5835    3.4131    0.0000 H   0  0  0  0  0  0  0  0  0  0  0  0
   17.4506    0.7445    0.0000 H   0  0  0  0  0  0  0  0  0  0  0  0
   17.5434    0.4358    0.0000 H   0  0  0  0  0  0  0  0  0  0  0  0
   19.4209   -1.6494    0.0000 H   0  0  0  0  0  0  0  0  0  0  0  0
   18.1242    3.9137    0.0000 H   0  0  0  0  0  0  0  0  0  0  0  0
   18.9913    1.2451    0.0000 H   0  0  0  0  0  0  0  0  0  0  0  0
    7.0606    2.8924    0.0000 H   0  0  0  0  0  0  0  0  0  0  0  0
    9.8052    3.4758    0.0000 H   0  0  0  0  0  0  0  0  0  0  0  0
   18.7473    1.5198    0.0000 H   0  0  0  0  0  0  0  0  0  0  0  0
   20.6248   -0.5654    0.0000 H   0  0  0  0  0  0  0  0  0  0  0  0
    4.5981   -2.1943    0.0000 H   0  0  0  0  0  0  0  0  0  0  0  0
    6.0010   -4.6243    0.0000 H   0  0  0  0  0  0  0  0  0  0  0  0
    6.7238    4.4770    0.0000 H   0  0  0  0  0  0  0  0  0  0  0  0
    9.4684    5.0604    0.0000 H   0  0  0  0  0  0  0  0  0  0  0  0
    4.5981   -5.4343    0.0000 H   0  0  0  0  0  0  0  0  0  0  0  0
   19.8184    3.5536    0.0000 H   0  0  0  0  0  0  0  0  0  0  0  0
   21.1600    1.0818    0.0000 H   0  0  0  0  0  0  0  0  0  0  0  0
    7.2590    6.1243    0.0000 H   0  0  0  0  0  0  0  0  0  0  0  0
    2.8660   -5.4343    0.0000 H   0  0  0  0  0  0  0  0  0  0  0  0
    1.6900   -2.7774    0.0000 H   0  0  0  0  0  0  0  0  0  0  0  0
    1.4631   -3.6243    0.0000 H   0  0  0  0  0  0  0  0  0  0  0  0
    2.3100   -3.8512    0.0000 H   0  0  0  0  0  0  0  0  0  0  0  0
  1 21  1  0  0  0  0
  1 24  1  0  0  0  0
 21  2  1  6  0  0  0
 25  2  1  6  0  0  0
  3 25  1  0  0  0  0
  3 30  1  0  0  0  0
 22  4  1  6  0  0  0
  4 33  1  0  0  0  0
 23  5  1  1  0  0  0
  5 82  1  0  0  0  0
  6 27  1  0  0  0  0
  6 34  1  0  0  0  0
 26  7  1  6  0  0  0
  7 85  1  0  0  0  0
 28  8  1  1  0  0  0
  8 86  1  0  0  0  0
 29  9  1  6  0  0  0
  9 87  1  0  0  0  0
 10 31  1  0  0  0  0
 10 35  1  0  0  0  0
 11 32  1  0  0  0  0
 11 37  1  0  0  0  0
 12 33  2  0  0  0  0
 13 34  2  0  0  0  0
 14 35  2  0  0  0  0
 15 37  2  0  0  0  0
 16 57  1  0  0  0  0
 16111  1  0  0  0  0
 17 62  1  0  0  0  0
 17112  1  0  0  0  0
 18 65  1  0  0  0  0
 18113  1  0  0  0  0
 19 66  1  0  0  0  0
 19 69  1  0  0  0  0
 20 68  1  0  0  0  0
 20114  1  0  0  0  0
 21 22  1  0  0  0  0
 21 27  1  0  0  0  0
 22 23  1  0  0  0  0
 22 70  1  0  0  0  0
 23 24  1  0  0  0  0
 23 71  1  0  0  0  0
 24 31  1  6  0  0  0
 24 72  1  0  0  0  0
 25 26  1  0  0  0  0
 25 73  1  0  0  0  0
 26 28  1  0  0  0  0
 26 74  1  0  0  0  0
 27 75  1  0  0  0  0
 27 76  1  0  0  0  0
 28 29  1  0  0  0  0
 28 77  1  0  0  0  0
 29 30  1  0  0  0  0
 29 78  1  0  0  0  0
 30 32  1  1  0  0  0
 30 79  1  0  0  0  0
 31 80  1  0  0  0  0
 31 81  1  0  0  0  0
 32 83  1  0  0  0  0
 32 84  1  0  0  0  0
 33 36  1  0  0  0  0
 34 38  1  0  0  0  0
 35 39  1  0  0  0  0
 36 40  2  0  0  0  0
 36 88  1  0  0  0  0
 37 41  1  0  0  0  0
 38 42  2  0  0  0  0
 38 89  1  0  0  0  0
 39 44  2  0  0  0  0
 39 90  1  0  0  0  0
 40 43  1  0  0  0  0
 40 91  1  0  0  0  0
 41 46  2  0  0  0  0
 41 92  1  0  0  0  0
 42 45  1  0  0  0  0
 42 93  1  0  0  0  0
 43 47  2  0  0  0  0
 43 48  1  0  0  0  0
 44 49  1  0  0  0  0
 44 94  1  0  0  0  0
 45 51  2  0  0  0  0
 45 52  1  0  0  0  0
 46 50  1  0  0  0  0
 46 95  1  0  0  0  0
 47 53  1  0  0  0  0
 47 96  1  0  0  0  0
 48 54  2  0  0  0  0
 48 97  1  0  0  0  0
 49 55  2  0  0  0  0
 49 56  1  0  0  0  0
 50 60  2  0  0  0  0
 50 61  1  0  0  0  0
 51 58  1  0  0  0  0
 51 98  1  0  0  0  0
 52 59  2  0  0  0  0
 52 99  1  0  0  0  0
 53 57  2  0  0  0  0
 53100  1  0  0  0  0
 54 57  1  0  0  0  0
 54101  1  0  0  0  0
 55 63  1  0  0  0  0
 55102  1  0  0  0  0
 56 64  2  0  0  0  0
 56103  1  0  0  0  0
 58 62  2  0  0  0  0
 58104  1  0  0  0  0
 59 62  1  0  0  0  0
 59105  1  0  0  0  0
 60 66  1  0  0  0  0
 60106  1  0  0  0  0
 61 67  2  0  0  0  0
 61107  1  0  0  0  0
 63 65  2  0  0  0  0
 63108  1  0  0  0  0
 64 65  1  0  0  0  0
 64109  1  0  0  0  0
 66 68  2  0  0  0  0
 67 68  1  0  0  0  0
 67110  1  0  0  0  0
 69115  1  0  0  0  0
 69116  1  0  0  0  0
 69117  1  0  0  0  0
M  END
> <PUBCHEM_COMPOUND_CID>
10033855

> <PUBCHEM_COMPOUND_CANONICALIZED>
1

> <PUBCHEM_CACTVS_COMPLEXITY>
1780

> <PUBCHEM_CACTVS_HBOND_ACCEPTOR>
20

> <PUBCHEM_CACTVS_HBOND_DONOR>
8

> <PUBCHEM_CACTVS_ROTATABLE_BOND>
22

> <PUBCHEM_CACTVS_SUBSKEYS>
AAADcfB8PgAAAAAAAAAAAAAAAAAAASAAAAA0YMGCAAAAAAABVAAAGgAACAAADBSwmAMyDoAABgCIAiDSCAACCAAgIAAIiAAGiMgdNiKGMRqicCMlwBEPuYfA4BwOIAABAAAAQABAAAIAAACAAAAAAAAAAA==

> <PUBCHEM_IUPAC_OPENEYE_NAME>
[(2R,3R,4S,5S)-3-hydroxy-4-[(E)-3-(4-hydroxyphenyl)prop-2-enoyl]oxy-5-[[(E)-3-(4-hydroxyphenyl)prop-2-enoyl]oxymethyl]-5-[(2R,3R,4S,5S,6R)-3,4,5-trihydroxy-6-[[(E)-3-(4-hydroxy-3-methoxy-phenyl)prop-2-enoyl]oxymethyl]tetrahydropyran-2-yl]oxy-tetrahydrofuran-2-yl]methyl (E)-3-(4-hydroxyphenyl)prop-2-enoate

> <PUBCHEM_IUPAC_CAS_NAME>
(E)-3-(4-hydroxyphenyl)-2-propenoic acid [(2R,3R,4S,5S)-3-hydroxy-4-[(E)-3-(4-hydroxyphenyl)-1-oxoprop-2-enoxy]-5-[[(E)-3-(4-hydroxyphenyl)-1-oxoprop-2-enoxy]methyl]-5-[[(2R,3R,4S,5S,6R)-3,4,5-trihydroxy-6-[[(E)-3-(4-hydroxy-3-methoxyphenyl)-1-oxoprop-2-enoxy]methyl]-2-oxanyl]oxy]-2-oxolanyl]methyl ester

> <PUBCHEM_IUPAC_NAME_MARKUP>
[(2<I>R</I>,3<I>R</I>,4<I>S</I>,5<I>S</I>)-3-hydroxy-4-[(<I>E</I>)-3-(4-hydroxyphenyl)prop-2-enoyl]oxy-5-[[(<I>E</I>)-3-(4-hydroxyphenyl)prop-2-enoyl]oxymethyl]-5-[(2<I>R</I>,3<I>R</I>,4<I>S</I>,5<I>S</I>,6<I>R</I>)-3,4,5-trihydroxy-6-[[(<I>E</I>)-3-(4-hydroxy-3-methoxyphenyl)prop-2-enoyl]oxymethyl]oxan-2-yl]oxyoxolan-2-yl]methyl (<I>E</I>)-3-(4-hydroxyphenyl)prop-2-enoate

> <PUBCHEM_IUPAC_NAME>
[(2R,3R,4S,5S)-3-hydroxy-4-[(E)-3-(4-hydroxyphenyl)prop-2-enoyl]oxy-5-[[(E)-3-(4-hydroxyphenyl)prop-2-enoyl]oxymethyl]-5-[(2R,3R,4S,5S,6R)-3,4,5-trihydroxy-6-[[(E)-3-(4-hydroxy-3-methoxyphenyl)prop-2-enoyl]oxymethyl]oxan-2-yl]oxyoxolan-2-yl]methyl (E)-3-(4-hydroxyphenyl)prop-2-enoate

> <PUBCHEM_IUPAC_SYSTEMATIC_NAME>
[(2R,3R,4S,5S)-4-[(E)-3-(4-hydroxyphenyl)prop-2-enoyl]oxy-5-[[(E)-3-(4-hydroxyphenyl)prop-2-enoyl]oxymethyl]-5-[(2R,3R,4S,5S,6R)-6-[[(E)-3-(3-methoxy-4-oxidanyl-phenyl)prop-2-enoyl]oxymethyl]-3,4,5-tris(oxidanyl)oxan-2-yl]oxy-3-oxidanyl-oxolan-2-yl]methyl (E)-3-(4-hydroxyphenyl)prop-2-enoate

> <PUBCHEM_IUPAC_TRADITIONAL_NAME>
(E)-3-(4-hydroxyphenyl)acrylic acid [(2R,3R,4S,5S)-3-hydroxy-4-[(E)-3-(4-hydroxyphenyl)acryloyl]oxy-5-[[(E)-3-(4-hydroxyphenyl)acryloyl]oxymethyl]-5-[(2R,3R,4S,5S,6R)-3,4,5-trihydroxy-6-[[(E)-3-(4-hydroxy-3-methoxy-phenyl)acryloyl]oxymethyl]tetrahydropyran-2-yl]oxy-tetrahydrofuran-2-yl]methyl ester

> <PUBCHEM_IUPAC_INCHI>
InChI=1S/C49H48O20/c1-62-36-24-31(8-19-35(36)53)12-22-40(55)63-25-37-43(58)45(60)46(61)48(66-37)69-49(27-65-41(56)21-10-29-4-15-33(51)16-5-29)47(67-42(57)23-11-30-6-17-34(52)18-7-30)44(59)38(68-49)26-64-39(54)20-9-28-2-13-32(50)14-3-28/h2-24,37-38,43-48,50-53,58-61H,25-27H2,1H3/b20-9+,21-10+,22-12+,23-11+/t37-,38-,43-,44-,45+,46-,47+,48-,49+/m1/s1

> <PUBCHEM_IUPAC_INCHIKEY>
ALSDWGAQQGXOHC-PWYSLETCSA-N

> <PUBCHEM_XLOGP3_AA>
3.7

> <PUBCHEM_EXACT_MASS>
956.273894

> <PUBCHEM_MOLECULAR_FORMULA>
C49H48O20

> <PUBCHEM_MOLECULAR_WEIGHT>
956.9

> <PUBCHEM_OPENEYE_CAN_SMILES>
COC1=C(C=CC(=C1)C=CC(=O)OCC2C(C(C(C(O2)OC3(C(C(C(O3)COC(=O)C=CC4=CC=C(C=C4)O)O)OC(=O)C=CC5=CC=C(C=C5)O)COC(=O)C=CC6=CC=C(C=C6)O)O)O)O)O

> <PUBCHEM_OPENEYE_ISO_SMILES>
COC1=C(C=CC(=C1)/C=C/C(=O)OC[C@@H]2[C@H]([C@@H]([C@H]([C@H](O2)O[C@]3([C@H]([C@@H]([C@H](O3)COC(=O)/C=C/C4=CC=C(C=C4)O)O)OC(=O)/C=C/C5=CC=C(C=C5)O)COC(=O)/C=C/C6=CC=C(C=C6)O)O)O)O)O

> <PUBCHEM_CACTVS_TPSA>
304

> <PUBCHEM_MONOISOTOPIC_WEIGHT>
956.273894

> <PUBCHEM_TOTAL_CHARGE>
0

> <PUBCHEM_HEAVY_ATOM_COUNT>
69

> <PUBCHEM_ATOM_DEF_STEREO_COUNT>
9

> <PUBCHEM_ATOM_UDEF_STEREO_COUNT>
0

> <PUBCHEM_BOND_DEF_STEREO_COUNT>
4

> <PUBCHEM_BOND_UDEF_STEREO_COUNT>
0

> <PUBCHEM_ISOTOPIC_ATOM_COUNT>
0

> <PUBCHEM_COMPONENT_COUNT>
1

> <PUBCHEM_CACTVS_TAUTO_COUNT>
-1

> <PUBCHEM_COORDINATE_TYPE>
1
5
255

> <PUBCHEM_BONDANNOTATIONS>
21  2  6
25  2  6
24  31  6
30  32  5
22  4  6
43  47  8
43  48  8
45  51  8
45  52  8
47  53  8
48  54  8
49  55  8
49  56  8
23  5  5
50  60  8
50  61  8
51  58  8
52  59  8
53  57  8
54  57  8
55  63  8
56  64  8
58  62  8
59  62  8
60  66  8
61  67  8
63  65  8
64  65  8
66  68  8
67  68  8
26  7  6
28  8  5
29  9  6

$$$$
