12018904
  -OEChem-09252010252D

 74 74  0     0  0  0  0  0  0999 V2000
    4.5981   -3.5950    0.0000 O   0  0  0  0  0  0  0  0  0  0  0  0
    2.8660   -3.5950    0.0000 O   0  0  0  0  0  0  0  0  0  0  0  0
    2.8660   -9.5950    0.0000 O   0  0  0  0  0  0  0  0  0  0  0  0
    8.0622    3.4050    0.0000 C   0  0  0  0  0  0  0  0  0  0  0  0
    8.9282    3.9050    0.0000 C   0  0  0  0  0  0  0  0  0  0  0  0
    8.0622    2.4050    0.0000 C   0  0  0  0  0  0  0  0  0  0  0  0
    8.9282    4.9050    0.0000 C   0  0  0  0  0  0  0  0  0  0  0  0
    7.1962    1.9050    0.0000 C   0  0  0  0  0  0  0  0  0  0  0  0
    9.7942    5.4050    0.0000 C   0  0  0  0  0  0  0  0  0  0  0  0
    7.1962    0.9050    0.0000 C   0  0  0  0  0  0  0  0  0  0  0  0
    9.7942    6.4050    0.0000 C   0  0  0  0  0  0  0  0  0  0  0  0
    6.3301    0.4050    0.0000 C   0  0  0  0  0  0  0  0  0  0  0  0
   10.6603    6.9050    0.0000 C   0  0  0  0  0  0  0  0  0  0  0  0
    6.3301   -0.5950    0.0000 C   0  0  0  0  0  0  0  0  0  0  0  0
   10.6603    7.9050    0.0000 C   0  0  0  0  0  0  0  0  0  0  0  0
    5.4641   -1.0950    0.0000 C   0  0  0  0  0  0  0  0  0  0  0  0
   11.5263    8.4050    0.0000 C   0  0  0  0  0  0  0  0  0  0  0  0
    5.4641   -2.0950    0.0000 C   0  0  0  0  0  0  0  0  0  0  0  0
   11.5263    9.4050    0.0000 C   0  0  0  0  0  0  0  0  0  0  0  0
    4.5981   -2.5950    0.0000 C   0  0  0  0  0  0  0  0  0  0  0  0
   12.3923    9.9050    0.0000 C   0  0  0  0  0  0  0  0  0  0  0  0
    3.7320   -4.0950    0.0000 C   0  0  0  0  0  0  0  0  0  0  0  0
    3.7320   -5.0950    0.0000 C   0  0  0  0  0  0  0  0  0  0  0  0
    2.8660   -5.5950    0.0000 C   0  0  0  0  0  0  0  0  0  0  0  0
    2.8660   -6.5950    0.0000 C   0  0  0  0  0  0  0  0  0  0  0  0
    3.7320   -7.0950    0.0000 C   0  0  0  0  0  0  0  0  0  0  0  0
    2.0000   -7.0950    0.0000 C   0  0  0  0  0  0  0  0  0  0  0  0
    3.7320   -8.0950    0.0000 C   0  0  0  0  0  0  0  0  0  0  0  0
    2.0000   -8.0950    0.0000 C   0  0  0  0  0  0  0  0  0  0  0  0
    2.8660   -8.5950    0.0000 C   0  0  0  0  0  0  0  0  0  0  0  0
    7.8501    3.9876    0.0000 H   0  0  0  0  0  0  0  0  0  0  0  0
    7.4516    3.2973    0.0000 H   0  0  0  0  0  0  0  0  0  0  0  0
    9.1403    3.3224    0.0000 H   0  0  0  0  0  0  0  0  0  0  0  0
    9.5388    4.0127    0.0000 H   0  0  0  0  0  0  0  0  0  0  0  0
    8.2742    1.8224    0.0000 H   0  0  0  0  0  0  0  0  0  0  0  0
    8.6728    2.5127    0.0000 H   0  0  0  0  0  0  0  0  0  0  0  0
    8.7162    5.4876    0.0000 H   0  0  0  0  0  0  0  0  0  0  0  0
    8.3176    4.7973    0.0000 H   0  0  0  0  0  0  0  0  0  0  0  0
    6.9841    2.4876    0.0000 H   0  0  0  0  0  0  0  0  0  0  0  0
    6.5856    1.7973    0.0000 H   0  0  0  0  0  0  0  0  0  0  0  0
   10.0063    4.8224    0.0000 H   0  0  0  0  0  0  0  0  0  0  0  0
   10.4048    5.5127    0.0000 H   0  0  0  0  0  0  0  0  0  0  0  0
    7.4082    0.3224    0.0000 H   0  0  0  0  0  0  0  0  0  0  0  0
    7.8067    1.0127    0.0000 H   0  0  0  0  0  0  0  0  0  0  0  0
    9.5822    6.9876    0.0000 H   0  0  0  0  0  0  0  0  0  0  0  0
    9.1836    6.2973    0.0000 H   0  0  0  0  0  0  0  0  0  0  0  0
    6.1181    0.9876    0.0000 H   0  0  0  0  0  0  0  0  0  0  0  0
    5.7196    0.2973    0.0000 H   0  0  0  0  0  0  0  0  0  0  0  0
   10.8723    6.3224    0.0000 H   0  0  0  0  0  0  0  0  0  0  0  0
   11.2708    7.0127    0.0000 H   0  0  0  0  0  0  0  0  0  0  0  0
    6.5422   -1.1776    0.0000 H   0  0  0  0  0  0  0  0  0  0  0  0
    6.9407   -0.4873    0.0000 H   0  0  0  0  0  0  0  0  0  0  0  0
   10.4482    8.4876    0.0000 H   0  0  0  0  0  0  0  0  0  0  0  0
   10.0497    7.7973    0.0000 H   0  0  0  0  0  0  0  0  0  0  0  0
    5.2520   -0.5124    0.0000 H   0  0  0  0  0  0  0  0  0  0  0  0
    4.8535   -1.2027    0.0000 H   0  0  0  0  0  0  0  0  0  0  0  0
   11.7383    7.8224    0.0000 H   0  0  0  0  0  0  0  0  0  0  0  0
   12.1369    8.5127    0.0000 H   0  0  0  0  0  0  0  0  0  0  0  0
    5.6762   -2.6776    0.0000 H   0  0  0  0  0  0  0  0  0  0  0  0
    6.0747   -1.9873    0.0000 H   0  0  0  0  0  0  0  0  0  0  0  0
   11.3142    9.9876    0.0000 H   0  0  0  0  0  0  0  0  0  0  0  0
   10.9157    9.2973    0.0000 H   0  0  0  0  0  0  0  0  0  0  0  0
    4.3860   -2.0124    0.0000 H   0  0  0  0  0  0  0  0  0  0  0  0
    3.9875   -2.7027    0.0000 H   0  0  0  0  0  0  0  0  0  0  0  0
   12.7023    9.3681    0.0000 H   0  0  0  0  0  0  0  0  0  0  0  0
   12.9292   10.2150    0.0000 H   0  0  0  0  0  0  0  0  0  0  0  0
   12.0823   10.4419    0.0000 H   0  0  0  0  0  0  0  0  0  0  0  0
    4.2690   -5.4050    0.0000 H   0  0  0  0  0  0  0  0  0  0  0  0
    2.3291   -5.2850    0.0000 H   0  0  0  0  0  0  0  0  0  0  0  0
    4.2690   -6.7850    0.0000 H   0  0  0  0  0  0  0  0  0  0  0  0
    1.4631   -6.7850    0.0000 H   0  0  0  0  0  0  0  0  0  0  0  0
    4.2690   -8.4050    0.0000 H   0  0  0  0  0  0  0  0  0  0  0  0
    1.4631   -8.4050    0.0000 H   0  0  0  0  0  0  0  0  0  0  0  0
    2.3291   -9.9050    0.0000 H   0  0  0  0  0  0  0  0  0  0  0  0
  1 20  1  0  0  0  0
  1 22  1  0  0  0  0
  2 22  2  0  0  0  0
  3 30  1  0  0  0  0
  3 74  1  0  0  0  0
  4  5  1  0  0  0  0
  4  6  1  0  0  0  0
  4 31  1  0  0  0  0
  4 32  1  0  0  0  0
  5  7  1  0  0  0  0
  5 33  1  0  0  0  0
  5 34  1  0  0  0  0
  6  8  1  0  0  0  0
  6 35  1  0  0  0  0
  6 36  1  0  0  0  0
  7  9  1  0  0  0  0
  7 37  1  0  0  0  0
  7 38  1  0  0  0  0
  8 10  1  0  0  0  0
  8 39  1  0  0  0  0
  8 40  1  0  0  0  0
  9 11  1  0  0  0  0
  9 41  1  0  0  0  0
  9 42  1  0  0  0  0
 10 12  1  0  0  0  0
 10 43  1  0  0  0  0
 10 44  1  0  0  0  0
 11 13  1  0  0  0  0
 11 45  1  0  0  0  0
 11 46  1  0  0  0  0
 12 14  1  0  0  0  0
 12 47  1  0  0  0  0
 12 48  1  0  0  0  0
 13 15  1  0  0  0  0
 13 49  1  0  0  0  0
 13 50  1  0  0  0  0
 14 16  1  0  0  0  0
 14 51  1  0  0  0  0
 14 52  1  0  0  0  0
 15 17  1  0  0  0  0
 15 53  1  0  0  0  0
 15 54  1  0  0  0  0
 16 18  1  0  0  0  0
 16 55  1  0  0  0  0
 16 56  1  0  0  0  0
 17 19  1  0  0  0  0
 17 57  1  0  0  0  0
 17 58  1  0  0  0  0
 18 20  1  0  0  0  0
 18 59  1  0  0  0  0
 18 60  1  0  0  0  0
 19 21  1  0  0  0  0
 19 61  1  0  0  0  0
 19 62  1  0  0  0  0
 20 63  1  0  0  0  0
 20 64  1  0  0  0  0
 21 65  1  0  0  0  0
 21 66  1  0  0  0  0
 21 67  1  0  0  0  0
 22 23  1  0  0  0  0
 23 24  2  0  0  0  0
 23 68  1  0  0  0  0
 24 25  1  0  0  0  0
 24 69  1  0  0  0  0
 25 26  2  0  0  0  0
 25 27  1  0  0  0  0
 26 28  1  0  0  0  0
 26 70  1  0  0  0  0
 27 29  2  0  0  0  0
 27 71  1  0  0  0  0
 28 30  2  0  0  0  0
 28 72  1  0  0  0  0
 29 30  1  0  0  0  0
 29 73  1  0  0  0  0
M  END
> <PUBCHEM_COMPOUND_CID>
12018904

> <PUBCHEM_COMPOUND_CANONICALIZED>
1

> <PUBCHEM_CACTVS_COMPLEXITY>
410

> <PUBCHEM_CACTVS_HBOND_ACCEPTOR>
3

> <PUBCHEM_CACTVS_HBOND_DONOR>
1

> <PUBCHEM_CACTVS_ROTATABLE_BOND>
20

> <PUBCHEM_CACTVS_SUBSKEYS>
AAADcfB4MAAAAAAAAAAAAAAAAAAAAAAAAAAwAAAAAAAAAAABAAAAGgAACAAADASgmAIyDoAABgCIAiDSCAACAAAgIAAIiAAGCMgIJiKCMRKCcAAkwBEIuYeAwKAOIAAAAAAAAABAAAAAAAAAAAAAAAAAAA==

> <PUBCHEM_IUPAC_OPENEYE_NAME>
octadecyl (E)-3-(4-hydroxyphenyl)prop-2-enoate

> <PUBCHEM_IUPAC_CAS_NAME>
(E)-3-(4-hydroxyphenyl)-2-propenoic acid octadecyl ester

> <PUBCHEM_IUPAC_NAME_MARKUP>
octadecyl (<I>E</I>)-3-(4-hydroxyphenyl)prop-2-enoate

> <PUBCHEM_IUPAC_NAME>
octadecyl (E)-3-(4-hydroxyphenyl)prop-2-enoate

> <PUBCHEM_IUPAC_SYSTEMATIC_NAME>
octadecyl (E)-3-(4-hydroxyphenyl)prop-2-enoate

> <PUBCHEM_IUPAC_TRADITIONAL_NAME>
(E)-3-(4-hydroxyphenyl)acrylic acid stearyl ester

> <PUBCHEM_IUPAC_INCHI>
InChI=1S/C27H44O3/c1-2-3-4-5-6-7-8-9-10-11-12-13-14-15-16-17-24-30-27(29)23-20-25-18-21-26(28)22-19-25/h18-23,28H,2-17,24H2,1H3/b23-20+

> <PUBCHEM_IUPAC_INCHIKEY>
SXXOKKBSVARFFB-BSYVCWPDSA-N

> <PUBCHEM_XLOGP3_AA>
10.7

> <PUBCHEM_EXACT_MASS>
416.329045

> <PUBCHEM_MOLECULAR_FORMULA>
C27H44O3

> <PUBCHEM_MOLECULAR_WEIGHT>
416.6

> <PUBCHEM_OPENEYE_CAN_SMILES>
CCCCCCCCCCCCCCCCCCOC(=O)C=CC1=CC=C(C=C1)O

> <PUBCHEM_OPENEYE_ISO_SMILES>
CCCCCCCCCCCCCCCCCCOC(=O)/C=C/C1=CC=C(C=C1)O

> <PUBCHEM_CACTVS_TPSA>
46.5

> <PUBCHEM_MONOISOTOPIC_WEIGHT>
416.329045

> <PUBCHEM_TOTAL_CHARGE>
0

> <PUBCHEM_HEAVY_ATOM_COUNT>
30

> <PUBCHEM_ATOM_DEF_STEREO_COUNT>
0

> <PUBCHEM_ATOM_UDEF_STEREO_COUNT>
0

> <PUBCHEM_BOND_DEF_STEREO_COUNT>
1

> <PUBCHEM_BOND_UDEF_STEREO_COUNT>
0

> <PUBCHEM_ISOTOPIC_ATOM_COUNT>
0

> <PUBCHEM_COMPONENT_COUNT>
1

> <PUBCHEM_CACTVS_TAUTO_COUNT>
-1

> <PUBCHEM_COORDINATE_TYPE>
1
5
255

> <PUBCHEM_BONDANNOTATIONS>
25  26  8
25  27  8
26  28  8
27  29  8
28  30  8
29  30  8

$$$$
