91746471
  -OEChem-09182011432D

 39 41  0     1  0  0  0  0  0999 V2000
    5.7936   -0.5444    0.0000 C   0  0  1  0  0  0  0  0  0  0  0  0
    5.3158    1.4042    0.0000 C   0  0  0  0  0  0  0  0  0  0  0  0
    6.0524    0.4216    0.0000 C   0  0  1  0  0  0  0  0  0  0  0  0
    7.1925   -1.0532    0.0000 C   0  0  0  0  0  0  0  0  0  0  0  0
    4.5725   -1.4100    0.0000 C   0  0  0  0  0  0  0  0  0  0  0  0
    7.4513   -0.0872    0.0000 C   0  0  0  0  0  0  0  0  0  0  0  0
    4.0191    0.1104    0.0000 C   0  0  0  0  0  0  0  0  0  0  0  0
    3.7435   -0.8508    0.0000 C   0  0  0  0  0  0  0  0  0  0  0  0
    2.9617   -1.4649    0.0000 C   0  0  1  0  0  0  0  0  0  0  0  0
    4.2960   -2.3649    0.0000 C   0  0  0  0  0  0  0  0  0  0  0  0
    5.5347   -1.5103    0.0000 C   0  0  0  0  0  0  0  0  0  0  0  0
    5.4203    2.3987    0.0000 C   0  0  0  0  0  0  0  0  0  0  0  0
    4.4022    1.8109    0.0000 C   0  0  0  0  0  0  0  0  0  0  0  0
    3.3025   -2.3987    0.0000 C   0  0  0  0  0  0  0  0  0  0  0  0
    2.0000   -1.1909    0.0000 C   0  0  0  0  0  0  0  0  0  0  0  0
    6.2724    1.2426    0.0000 H   0  0  0  0  0  0  0  0  0  0  0  0
    6.9976   -1.6417    0.0000 H   0  0  0  0  0  0  0  0  0  0  0  0
    7.7865   -1.2310    0.0000 H   0  0  0  0  0  0  0  0  0  0  0  0
    8.0453   -0.2650    0.0000 H   0  0  0  0  0  0  0  0  0  0  0  0
    7.6462    0.5013    0.0000 H   0  0  0  0  0  0  0  0  0  0  0  0
    4.0141    0.7304    0.0000 H   0  0  0  0  0  0  0  0  0  0  0  0
    3.4048    0.1942    0.0000 H   0  0  0  0  0  0  0  0  0  0  0  0
    2.5395   -1.9189    0.0000 H   0  0  0  0  0  0  0  0  0  0  0  0
    4.2519   -2.9833    0.0000 H   0  0  0  0  0  0  0  0  0  0  0  0
    4.9064   -2.4738    0.0000 H   0  0  0  0  0  0  0  0  0  0  0  0
    4.9359   -1.3498    0.0000 H   0  0  0  0  0  0  0  0  0  0  0  0
    5.3743   -2.1092    0.0000 H   0  0  0  0  0  0  0  0  0  0  0  0
    6.1336   -1.6708    0.0000 H   0  0  0  0  0  0  0  0  0  0  0  0
    6.0369    2.3339    0.0000 H   0  0  0  0  0  0  0  0  0  0  0  0
    5.4851    3.0153    0.0000 H   0  0  0  0  0  0  0  0  0  0  0  0
    4.8037    2.4635    0.0000 H   0  0  0  0  0  0  0  0  0  0  0  0
    4.6544    2.3773    0.0000 H   0  0  0  0  0  0  0  0  0  0  0  0
    3.8358    2.0631    0.0000 H   0  0  0  0  0  0  0  0  0  0  0  0
    4.1500    1.2445    0.0000 H   0  0  0  0  0  0  0  0  0  0  0  0
    2.7010   -2.5489    0.0000 H   0  0  0  0  0  0  0  0  0  0  0  0
    3.3886   -3.0127    0.0000 H   0  0  0  0  0  0  0  0  0  0  0  0
    2.1699   -0.5946    0.0000 H   0  0  0  0  0  0  0  0  0  0  0  0
    1.4037   -1.0210    0.0000 H   0  0  0  0  0  0  0  0  0  0  0  0
    1.8301   -1.7872    0.0000 H   0  0  0  0  0  0  0  0  0  0  0  0
  1  2  1  0  0  0  0
  1  4  1  0  0  0  0
  1  5  1  0  0  0  0
  1 11  1  6  0  0  0
  2  3  1  0  0  0  0
  2 12  1  0  0  0  0
  2 13  1  0  0  0  0
  3  6  1  0  0  0  0
  3  7  1  0  0  0  0
  3 16  1  6  0  0  0
  4  6  1  0  0  0  0
  4 17  1  0  0  0  0
  4 18  1  0  0  0  0
  5  8  2  0  0  0  0
  5 10  1  0  0  0  0
  6 19  1  0  0  0  0
  6 20  1  0  0  0  0
  7  8  1  0  0  0  0
  7 21  1  0  0  0  0
  7 22  1  0  0  0  0
  8  9  1  0  0  0  0
  9 14  1  0  0  0  0
  9 15  1  1  0  0  0
  9 23  1  0  0  0  0
 10 14  1  0  0  0  0
 10 24  1  0  0  0  0
 10 25  1  0  0  0  0
 11 26  1  0  0  0  0
 11 27  1  0  0  0  0
 11 28  1  0  0  0  0
 12 29  1  0  0  0  0
 12 30  1  0  0  0  0
 12 31  1  0  0  0  0
 13 32  1  0  0  0  0
 13 33  1  0  0  0  0
 13 34  1  0  0  0  0
 14 35  1  0  0  0  0
 14 36  1  0  0  0  0
 15 37  1  0  0  0  0
 15 38  1  0  0  0  0
 15 39  1  0  0  0  0
M  END
> <PUBCHEM_COMPOUND_CID>
91746471

> <PUBCHEM_COMPOUND_CANONICALIZED>
1

> <PUBCHEM_CACTVS_COMPLEXITY>
334

> <PUBCHEM_CACTVS_HBOND_ACCEPTOR>
0

> <PUBCHEM_CACTVS_HBOND_DONOR>
0

> <PUBCHEM_CACTVS_ROTATABLE_BOND>
0

> <PUBCHEM_CACTVS_SUBSKEYS>
AAADceBwAAAAAAAAAAAAAAAAAAAAAYIAAAAgAAAABAAAAGAAAAAAGAAAAAAADwCAAAACAAAAAACAAgBAAAAAAAAgAAAACAAAAAgAAAIAAAAAAAAAgAAIAAMAgMAPgAAAAAAAAAAAAAAAAAAAAQAACAAAAA==

> <PUBCHEM_IUPAC_OPENEYE_NAME>
(1R,5R,8S)-1,5,11,11-tetramethyltricyclo[6.2.1.02,6]undec-2(6)-ene

> <PUBCHEM_IUPAC_CAS_NAME>
(1R,5R,8S)-1,5,11,11-tetramethyltricyclo[6.2.1.02,6]undec-2(6)-ene

> <PUBCHEM_IUPAC_NAME_MARKUP>
(1<I>R</I>,5<I>R</I>,8<I>S</I>)-1,5,11,11-tetramethyltricyclo[6.2.1.0<SUP>2,6</SUP>]undec-2(6)-ene

> <PUBCHEM_IUPAC_NAME>
(1R,5R,8S)-1,5,11,11-tetramethyltricyclo[6.2.1.02,6]undec-2(6)-ene

> <PUBCHEM_IUPAC_SYSTEMATIC_NAME>
(1R,5R,8S)-1,5,11,11-tetramethyltricyclo[6.2.1.02,6]undec-2(6)-ene

> <PUBCHEM_IUPAC_TRADITIONAL_NAME>
(1R,5R,8S)-1,5,11,11-tetramethyltricyclo[6.2.1.02,6]undec-2(6)-ene

> <PUBCHEM_IUPAC_INCHI>
InChI=1S/C15H24/c1-10-5-6-13-12(10)9-11-7-8-15(13,4)14(11,2)3/h10-11H,5-9H2,1-4H3/t10-,11+,15+/m1/s1

> <PUBCHEM_IUPAC_INCHIKEY>
CSKINCSXMLCMAR-ZETOZRRWSA-N

> <PUBCHEM_XLOGP3_AA>
4.3

> <PUBCHEM_EXACT_MASS>
204.187801

> <PUBCHEM_MOLECULAR_FORMULA>
C15H24

> <PUBCHEM_MOLECULAR_WEIGHT>
204.35

> <PUBCHEM_OPENEYE_CAN_SMILES>
CC1CCC2=C1CC3CCC2(C3(C)C)C

> <PUBCHEM_OPENEYE_ISO_SMILES>
C[C@@H]1CCC2=C1C[C@@H]3CC[C@@]2(C3(C)C)C

> <PUBCHEM_CACTVS_TPSA>
0

> <PUBCHEM_MONOISOTOPIC_WEIGHT>
204.187801

> <PUBCHEM_TOTAL_CHARGE>
0

> <PUBCHEM_HEAVY_ATOM_COUNT>
15

> <PUBCHEM_ATOM_DEF_STEREO_COUNT>
3

> <PUBCHEM_ATOM_UDEF_STEREO_COUNT>
0

> <PUBCHEM_BOND_DEF_STEREO_COUNT>
0

> <PUBCHEM_BOND_UDEF_STEREO_COUNT>
0

> <PUBCHEM_ISOTOPIC_ATOM_COUNT>
0

> <PUBCHEM_COMPONENT_COUNT>
1

> <PUBCHEM_CACTVS_TAUTO_COUNT>
-1

> <PUBCHEM_COORDINATE_TYPE>
1
5
255

> <PUBCHEM_BONDANNOTATIONS>
1  11  6
3  16  6
9  15  5

$$$$
