125210
  -OEChem-09172005452D

124130  0     1  0  0  0  0  0999 V2000
    6.8671    0.2657    0.0000 O   0  0  0  0  0  0  0  0  0  0  0  0
    8.6825   -0.7731    0.0000 O   0  0  0  0  0  0  0  0  0  0  0  0
    6.2440    2.7283    0.0000 O   0  0  0  0  0  0  0  0  0  0  0  0
   14.0264    6.4243    0.0000 O   0  0  0  0  0  0  0  0  0  0  0  0
   12.2945    6.4443    0.0000 O   0  0  0  0  0  0  0  0  0  0  0  0
   16.5188    4.6923    0.0000 O   0  0  0  0  0  0  0  0  0  0  0  0
   16.4921    2.9604    0.0000 O   0  0  0  0  0  0  0  0  0  0  0  0
    7.7331   -2.2343    0.0000 O   0  0  0  0  0  0  0  0  0  0  0  0
    5.1350   -0.7343    0.0000 O   0  0  0  0  0  0  0  0  0  0  0  0
    5.1350   -2.7343    0.0000 O   0  0  0  0  0  0  0  0  0  0  0  0
    6.8671   -3.7343    0.0000 O   0  0  0  0  0  0  0  0  0  0  0  0
    5.1350   -3.7343    0.0000 O   0  0  0  0  0  0  0  0  0  0  0  0
    6.8671   -5.7343    0.0000 O   0  0  0  0  0  0  0  0  0  0  0  0
    5.1350   -6.7343    0.0000 O   0  0  0  0  0  0  0  0  0  0  0  0
    3.4030   -5.7343    0.0000 O   0  0  0  0  0  0  0  0  0  0  0  0
    2.5369   -4.2343    0.0000 O   0  0  0  0  0  0  0  0  0  0  0  0
   10.4870    3.3962    0.0000 C   0  0  3  0  0  0  0  0  0  0  0  0
    9.5872    1.8650    0.0000 C   0  0  3  0  0  0  0  0  0  0  0  0
   10.4832    2.3962    0.0000 C   0  0  3  0  0  0  0  0  0  0  0  0
   11.3550    3.8928    0.0000 C   0  0  3  0  0  0  0  0  0  0  0  0
    8.6831    2.3823    0.0000 C   0  0  3  0  0  0  0  0  0  0  0  0
    9.5952    3.9343    0.0000 C   0  0  0  0  0  0  0  0  0  0  0  0
    7.7373    1.8507    0.0000 C   0  0  3  0  0  0  0  0  0  0  0  0
    8.6871    3.4240    0.0000 C   0  0  0  0  0  0  0  0  0  0  0  0
   12.2191    3.3895    0.0000 C   0  0  0  0  0  0  0  0  0  0  0  0
    9.6081    0.7802    0.0000 C   0  0  0  0  0  0  0  0  0  0  0  0
   11.3473    1.8929    0.0000 C   0  0  0  0  0  0  0  0  0  0  0  0
   13.1310    3.8928    0.0000 C   0  0  3  0  0  0  0  0  0  0  0  0
   11.3429    4.9344    0.0000 C   0  0  0  0  0  0  0  0  0  0  0  0
   13.1431    4.9344    0.0000 C   0  0  3  0  0  0  0  0  0  0  0  0
    7.7331    0.7657    0.0000 C   0  0  3  0  0  0  0  0  0  0  0  0
   10.1486    4.3372    0.0000 C   0  0  0  0  0  0  0  0  0  0  0  0
    8.6748    0.2269    0.0000 C   0  0  3  0  0  0  0  0  0  0  0  0
   10.4551    1.3683    0.0000 C   0  0  0  0  0  0  0  0  0  0  0  0
   12.2430    5.4587    0.0000 C   0  0  0  0  0  0  0  0  0  0  0  0
   12.2152    2.3895    0.0000 C   0  0  0  0  0  0  0  0  0  0  0  0
   10.7152    4.6614    0.0000 C   0  0  0  0  0  0  0  0  0  0  0  0
   14.0557    3.3252    0.0000 C   0  0  0  0  0  0  0  0  0  0  0  0
   14.0806    5.4805    0.0000 C   0  0  0  0  0  0  0  0  0  0  0  0
    7.2440    2.7206    0.0000 C   0  0  0  0  0  0  0  0  0  0  0  0
    6.7373    1.8584    0.0000 C   0  0  0  0  0  0  0  0  0  0  0  0
   15.0056    3.8495    0.0000 C   0  0  3  0  0  0  0  0  0  0  0  0
   15.0181    4.9344    0.0000 C   0  0  0  0  0  0  0  0  0  0  0  0
   13.1546    5.9344    0.0000 C   0  0  0  0  0  0  0  0  0  0  0  0
   15.4922    2.9759    0.0000 C   0  0  0  0  0  0  0  0  0  0  0  0
    6.8671   -0.7343    0.0000 C   0  0  3  0  0  0  0  0  0  0  0  0
   16.0055    3.8341    0.0000 C   0  0  0  0  0  0  0  0  0  0  0  0
    6.0010   -1.2343    0.0000 C   0  0  3  0  0  0  0  0  0  0  0  0
    7.7331   -1.2343    0.0000 C   0  0  0  0  0  0  0  0  0  0  0  0
    6.0010   -2.2343    0.0000 C   0  0  3  0  0  0  0  0  0  0  0  0
    6.8671   -2.7343    0.0000 C   0  0  3  0  0  0  0  0  0  0  0  0
   17.5187    4.6769    0.0000 C   0  0  0  0  0  0  0  0  0  0  0  0
    6.0010   -4.2343    0.0000 C   0  0  3  0  0  0  0  0  0  0  0  0
    6.0010   -5.2343    0.0000 C   0  0  3  0  0  0  0  0  0  0  0  0
    5.1350   -5.7343    0.0000 C   0  0  3  0  0  0  0  0  0  0  0  0
    4.2690   -4.2343    0.0000 C   0  0  3  0  0  0  0  0  0  0  0  0
    4.2690   -5.2343    0.0000 C   0  0  3  0  0  0  0  0  0  0  0  0
    3.4030   -3.7343    0.0000 C   0  0  0  0  0  0  0  0  0  0  0  0
   11.0213    2.7041    0.0000 H   0  0  0  0  0  0  0  0  0  0  0  0
    8.1486    2.6964    0.0000 H   0  0  0  0  0  0  0  0  0  0  0  0
   10.0016    4.4025    0.0000 H   0  0  0  0  0  0  0  0  0  0  0  0
    9.2034    4.4148    0.0000 H   0  0  0  0  0  0  0  0  0  0  0  0
    8.4803    4.0084    0.0000 H   0  0  0  0  0  0  0  0  0  0  0  0
    8.0759    3.3202    0.0000 H   0  0  0  0  0  0  0  0  0  0  0  0
    9.8284    0.2006    0.0000 H   0  0  0  0  0  0  0  0  0  0  0  0
   10.2168    0.8980    0.0000 H   0  0  0  0  0  0  0  0  0  0  0  0
   10.9469    1.4195    0.0000 H   0  0  0  0  0  0  0  0  0  0  0  0
   11.7440    1.4164    0.0000 H   0  0  0  0  0  0  0  0  0  0  0  0
   13.1167    3.2730    0.0000 H   0  0  0  0  0  0  0  0  0  0  0  0
   11.1272    5.5156    0.0000 H   0  0  0  0  0  0  0  0  0  0  0  0
   10.7334    4.8213    0.0000 H   0  0  0  0  0  0  0  0  0  0  0  0
    7.1968    1.0768    0.0000 H   0  0  0  0  0  0  0  0  0  0  0  0
   10.7321    4.5470    0.0000 H   0  0  0  0  0  0  0  0  0  0  0  0
    9.9388    4.9206    0.0000 H   0  0  0  0  0  0  0  0  0  0  0  0
    9.5652    4.1274    0.0000 H   0  0  0  0  0  0  0  0  0  0  0  0
    9.2147   -0.0779    0.0000 H   0  0  0  0  0  0  0  0  0  0  0  0
   10.1472    0.8302    0.0000 H   0  0  0  0  0  0  0  0  0  0  0  0
   10.9933    1.0604    0.0000 H   0  0  0  0  0  0  0  0  0  0  0  0
   10.7631    1.9065    0.0000 H   0  0  0  0  0  0  0  0  0  0  0  0
   12.6421    5.9331    0.0000 H   0  0  0  0  0  0  0  0  0  0  0  0
   11.8439    5.9331    0.0000 H   0  0  0  0  0  0  0  0  0  0  0  0
   12.7510    2.0775    0.0000 H   0  0  0  0  0  0  0  0  0  0  0  0
   11.1916    5.0581    0.0000 H   0  0  0  0  0  0  0  0  0  0  0  0
   10.3185    5.1378    0.0000 H   0  0  0  0  0  0  0  0  0  0  0  0
   10.2387    4.2647    0.0000 H   0  0  0  0  0  0  0  0  0  0  0  0
   13.6457    2.8601    0.0000 H   0  0  0  0  0  0  0  0  0  0  0  0
   14.4437    2.8417    0.0000 H   0  0  0  0  0  0  0  0  0  0  0  0
   14.4797    5.9550    0.0000 H   0  0  0  0  0  0  0  0  0  0  0  0
   13.6815    5.9550    0.0000 H   0  0  0  0  0  0  0  0  0  0  0  0
    7.8282    2.9281    0.0000 H   0  0  0  0  0  0  0  0  0  0  0  0
    7.1410    3.3320    0.0000 H   0  0  0  0  0  0  0  0  0  0  0  0
    6.7421    2.4784    0.0000 H   0  0  0  0  0  0  0  0  0  0  0  0
    6.1173    1.8632    0.0000 H   0  0  0  0  0  0  0  0  0  0  0  0
    6.7325    1.2385    0.0000 H   0  0  0  0  0  0  0  0  0  0  0  0
   15.6277    4.8213    0.0000 H   0  0  0  0  0  0  0  0  0  0  0  0
   15.2339    5.5156    0.0000 H   0  0  0  0  0  0  0  0  0  0  0  0
    9.2218   -1.0790    0.0000 H   0  0  0  0  0  0  0  0  0  0  0  0
   14.9505    2.6742    0.0000 H   0  0  0  0  0  0  0  0  0  0  0  0
   15.7939    2.4342    0.0000 H   0  0  0  0  0  0  0  0  0  0  0  0
   16.0338    3.2776    0.0000 H   0  0  0  0  0  0  0  0  0  0  0  0
    7.4040   -0.4243    0.0000 H   0  0  0  0  0  0  0  0  0  0  0  0
    5.9381    3.2676    0.0000 H   0  0  0  0  0  0  0  0  0  0  0  0
   14.0336    7.0443    0.0000 H   0  0  0  0  0  0  0  0  0  0  0  0
    6.0010   -0.6143    0.0000 H   0  0  0  0  0  0  0  0  0  0  0  0
    8.3437   -1.3419    0.0000 H   0  0  0  0  0  0  0  0  0  0  0  0
    7.9451   -0.6516    0.0000 H   0  0  0  0  0  0  0  0  0  0  0  0
    5.4641   -1.9243    0.0000 H   0  0  0  0  0  0  0  0  0  0  0  0
    6.3301   -3.0443    0.0000 H   0  0  0  0  0  0  0  0  0  0  0  0
    5.1350   -0.1143    0.0000 H   0  0  0  0  0  0  0  0  0  0  0  0
   17.5091    4.0569    0.0000 H   0  0  0  0  0  0  0  0  0  0  0  0
   18.1386    4.6673    0.0000 H   0  0  0  0  0  0  0  0  0  0  0  0
   17.5282    5.2968    0.0000 H   0  0  0  0  0  0  0  0  0  0  0  0
    4.5981   -2.4243    0.0000 H   0  0  0  0  0  0  0  0  0  0  0  0
    6.5380   -4.5443    0.0000 H   0  0  0  0  0  0  0  0  0  0  0  0
    6.0010   -5.8543    0.0000 H   0  0  0  0  0  0  0  0  0  0  0  0
    4.5981   -6.0443    0.0000 H   0  0  0  0  0  0  0  0  0  0  0  0
    4.2690   -3.6143    0.0000 H   0  0  0  0  0  0  0  0  0  0  0  0
    4.2690   -5.8543    0.0000 H   0  0  0  0  0  0  0  0  0  0  0  0
    7.4040   -5.4243    0.0000 H   0  0  0  0  0  0  0  0  0  0  0  0
    3.8015   -3.2593    0.0000 H   0  0  0  0  0  0  0  0  0  0  0  0
    3.0044   -3.2593    0.0000 H   0  0  0  0  0  0  0  0  0  0  0  0
    5.6720   -7.0443    0.0000 H   0  0  0  0  0  0  0  0  0  0  0  0
    3.4030   -6.3543    0.0000 H   0  0  0  0  0  0  0  0  0  0  0  0
    2.0000   -3.9243    0.0000 H   0  0  0  0  0  0  0  0  0  0  0  0
  1 31  1  0  0  0  0
  1 46  1  0  0  0  0
  2 33  1  0  0  0  0
  2 97  1  0  0  0  0
  3 40  1  0  0  0  0
  3102  1  0  0  0  0
  4 44  1  0  0  0  0
  4103  1  0  0  0  0
  5 44  2  0  0  0  0
  6 47  1  0  0  0  0
  6 52  1  0  0  0  0
  7 47  2  0  0  0  0
  8 49  1  0  0  0  0
  8 51  1  0  0  0  0
  9 48  1  0  0  0  0
  9109  1  0  0  0  0
 10 50  1  0  0  0  0
 10113  1  0  0  0  0
 11 51  1  0  0  0  0
 11 53  1  0  0  0  0
 12 53  1  0  0  0  0
 12 56  1  0  0  0  0
 13 54  1  0  0  0  0
 13119  1  0  0  0  0
 14 55  1  0  0  0  0
 14122  1  0  0  0  0
 15 57  1  0  0  0  0
 15123  1  0  0  0  0
 16 58  1  0  0  0  0
 16124  1  0  0  0  0
 17 19  1  0  0  0  0
 17 20  1  0  0  0  0
 17 22  1  0  0  0  0
 17 32  1  0  0  0  0
 18 19  1  0  0  0  0
 18 21  1  0  0  0  0
 18 26  1  0  0  0  0
 18 34  1  0  0  0  0
 19 27  1  0  0  0  0
 19 59  1  0  0  0  0
 20 25  1  0  0  0  0
 20 29  1  0  0  0  0
 20 37  1  0  0  0  0
 21 23  1  0  0  0  0
 21 24  1  0  0  0  0
 21 60  1  0  0  0  0
 22 24  1  0  0  0  0
 22 61  1  0  0  0  0
 22 62  1  0  0  0  0
 23 31  1  0  0  0  0
 23 40  1  0  0  0  0
 23 41  1  0  0  0  0
 24 63  1  0  0  0  0
 24 64  1  0  0  0  0
 25 28  1  0  0  0  0
 25 36  2  0  0  0  0
 26 33  1  0  0  0  0
 26 65  1  0  0  0  0
 26 66  1  0  0  0  0
 27 36  1  0  0  0  0
 27 67  1  0  0  0  0
 27 68  1  0  0  0  0
 28 30  1  0  0  0  0
 28 38  1  0  0  0  0
 28 69  1  0  0  0  0
 29 35  1  0  0  0  0
 29 70  1  0  0  0  0
 29 71  1  0  0  0  0
 30 35  1  0  0  0  0
 30 39  1  0  0  0  0
 30 44  1  0  0  0  0
 31 33  1  0  0  0  0
 31 72  1  0  0  0  0
 32 73  1  0  0  0  0
 32 74  1  0  0  0  0
 32 75  1  0  0  0  0
 33 76  1  0  0  0  0
 34 77  1  0  0  0  0
 34 78  1  0  0  0  0
 34 79  1  0  0  0  0
 35 80  1  0  0  0  0
 35 81  1  0  0  0  0
 36 82  1  0  0  0  0
 37 83  1  0  0  0  0
 37 84  1  0  0  0  0
 37 85  1  0  0  0  0
 38 42  1  0  0  0  0
 38 86  1  0  0  0  0
 38 87  1  0  0  0  0
 39 43  1  0  0  0  0
 39 88  1  0  0  0  0
 39 89  1  0  0  0  0
 40 90  1  0  0  0  0
 40 91  1  0  0  0  0
 41 92  1  0  0  0  0
 41 93  1  0  0  0  0
 41 94  1  0  0  0  0
 42 43  1  0  0  0  0
 42 45  1  0  0  0  0
 42 47  1  0  0  0  0
 43 95  1  0  0  0  0
 43 96  1  0  0  0  0
 45 98  1  0  0  0  0
 45 99  1  0  0  0  0
 45100  1  0  0  0  0
 46 48  1  0  0  0  0
 46 49  1  0  0  0  0
 46101  1  0  0  0  0
 48 50  1  0  0  0  0
 48104  1  0  0  0  0
 49105  1  0  0  0  0
 49106  1  0  0  0  0
 50 51  1  0  0  0  0
 50107  1  0  0  0  0
 51108  1  0  0  0  0
 52110  1  0  0  0  0
 52111  1  0  0  0  0
 52112  1  0  0  0  0
 53 54  1  0  0  0  0
 53114  1  0  0  0  0
 54 55  1  0  0  0  0
 54115  1  0  0  0  0
 55 57  1  0  0  0  0
 55116  1  0  0  0  0
 56 57  1  0  0  0  0
 56 58  1  0  0  0  0
 56117  1  0  0  0  0
 57118  1  0  0  0  0
 58120  1  0  0  0  0
 58121  1  0  0  0  0
M  END
> <PUBCHEM_COMPOUND_CID>
125210

> <PUBCHEM_COMPOUND_CANONICALIZED>
1

> <PUBCHEM_CACTVS_COMPLEXITY>
1610

> <PUBCHEM_CACTVS_HBOND_ACCEPTOR>
16

> <PUBCHEM_CACTVS_HBOND_DONOR>
9

> <PUBCHEM_CACTVS_ROTATABLE_BOND>
9

> <PUBCHEM_CACTVS_SUBSKEYS>
AAADcfB8PgAAAAAAAAAAAAAAAAAAAAAAAAA0aMGCAAAAAADAAAAAGgAACAAADxSwgAMCCAAABgCIAiDSCAAAAAAgAAAACAEAAAgREBIAAQAiQAAFgAAPAAPI6PyPgAAAAAAAAADAAAYAADCAAAAAAAAAAA==

> <PUBCHEM_IUPAC_OPENEYE_NAME>
10-[4,5-dihydroxy-6-[3,4,5-trihydroxy-6-(hydroxymethyl)tetrahydropyran-2-yl]oxy-tetrahydropyran-3-yl]oxy-11-hydroxy-9-(hydroxymethyl)-2-methoxycarbonyl-2,6a,6b,9,12a-pentamethyl-1,3,4,5,6,6a,7,8,8a,10,11,12,13,14b-tetradecahydropicene-4a-carboxylic acid

> <PUBCHEM_IUPAC_CAS_NAME>
10-[[4,5-dihydroxy-6-[[3,4,5-trihydroxy-6-(hydroxymethyl)-2-oxanyl]oxy]-3-oxanyl]oxy]-11-hydroxy-9-(hydroxymethyl)-2-methoxycarbonyl-2,6a,6b,9,12a-pentamethyl-1,3,4,5,6,6a,7,8,8a,10,11,12,13,14b-tetradecahydropicene-4a-carboxylic acid

> <PUBCHEM_IUPAC_NAME_MARKUP>
10-[4,5-dihydroxy-6-[3,4,5-trihydroxy-6-(hydroxymethyl)oxan-2-yl]oxyoxan-3-yl]oxy-11-hydroxy-9-(hydroxymethyl)-2-methoxycarbonyl-2,6<I>a</I>,6<I>b</I>,9,12<I>a</I>-pentamethyl-1,3,4,5,6,6<I>a</I>,7,8,8<I>a</I>,10,11,12,13,14<I>b</I>-tetradecahydropicene-4<I>a</I>-carboxylic acid

> <PUBCHEM_IUPAC_NAME>
10-[4,5-dihydroxy-6-[3,4,5-trihydroxy-6-(hydroxymethyl)oxan-2-yl]oxyoxan-3-yl]oxy-11-hydroxy-9-(hydroxymethyl)-2-methoxycarbonyl-2,6a,6b,9,12a-pentamethyl-1,3,4,5,6,6a,7,8,8a,10,11,12,13,14b-tetradecahydropicene-4a-carboxylic acid

> <PUBCHEM_IUPAC_SYSTEMATIC_NAME>
9-(hydroxymethyl)-10-[6-[6-(hydroxymethyl)-3,4,5-tris(oxidanyl)oxan-2-yl]oxy-4,5-bis(oxidanyl)oxan-3-yl]oxy-2-methoxycarbonyl-2,6a,6b,9,12a-pentamethyl-11-oxidanyl-1,3,4,5,6,6a,7,8,8a,10,11,12,13,14b-tetradecahydropicene-4a-carboxylic acid

> <PUBCHEM_IUPAC_TRADITIONAL_NAME>
2-carbomethoxy-10-[4,5-dihydroxy-6-(3,4,5-trihydroxy-6-methylol-tetrahydropyran-2-yl)oxy-tetrahydropyran-3-yl]oxy-11-hydroxy-2,6a,6b,9,12a-pentamethyl-9-methylol-1,3,4,5,6,6a,7,8,8a,10,11,12,13,14b-tetradecahydropicene-4a-carboxylic acid

> <PUBCHEM_IUPAC_INCHI>
InChI=1S/C42H66O16/c1-37(36(53)54-6)11-13-42(35(51)52)14-12-40(4)20(21(42)15-37)7-8-26-38(2)16-22(45)32(39(3,19-44)25(38)9-10-41(26,40)5)56-24-18-55-33(30(49)28(24)47)58-34-31(50)29(48)27(46)23(17-43)57-34/h7,21-34,43-50H,8-19H2,1-6H3,(H,51,52)

> <PUBCHEM_IUPAC_INCHIKEY>
YRHWKFMGEDDGIJ-UHFFFAOYSA-N

> <PUBCHEM_XLOGP3_AA>
0.8

> <PUBCHEM_EXACT_MASS>
826.435086

> <PUBCHEM_MOLECULAR_FORMULA>
C42H66O16

> <PUBCHEM_MOLECULAR_WEIGHT>
827

> <PUBCHEM_OPENEYE_CAN_SMILES>
CC1(CCC2(CCC3(C(=CCC4C3(CCC5C4(CC(C(C5(C)CO)OC6COC(C(C6O)O)OC7C(C(C(C(O7)CO)O)O)O)O)C)C)C2C1)C)C(=O)O)C(=O)OC

> <PUBCHEM_OPENEYE_ISO_SMILES>
CC1(CCC2(CCC3(C(=CCC4C3(CCC5C4(CC(C(C5(C)CO)OC6COC(C(C6O)O)OC7C(C(C(C(O7)CO)O)O)O)O)C)C)C2C1)C)C(=O)O)C(=O)OC

> <PUBCHEM_CACTVS_TPSA>
262

> <PUBCHEM_MONOISOTOPIC_WEIGHT>
826.435086

> <PUBCHEM_TOTAL_CHARGE>
0

> <PUBCHEM_HEAVY_ATOM_COUNT>
58

> <PUBCHEM_ATOM_DEF_STEREO_COUNT>
0

> <PUBCHEM_ATOM_UDEF_STEREO_COUNT>
20

> <PUBCHEM_BOND_DEF_STEREO_COUNT>
0

> <PUBCHEM_BOND_UDEF_STEREO_COUNT>
0

> <PUBCHEM_ISOTOPIC_ATOM_COUNT>
0

> <PUBCHEM_COMPONENT_COUNT>
1

> <PUBCHEM_CACTVS_TAUTO_COUNT>
-1

> <PUBCHEM_COORDINATE_TYPE>
1
5
255

> <PUBCHEM_BONDANNOTATIONS>
31  1  3
46  1  3
50  10  3
51  11  3
53  11  3
54  13  3
55  14  3
57  15  3
17  32  3
18  34  3
19  27  3
33  2  3
20  37  3
21  24  3
23  41  3
28  38  3
30  44  3
42  45  3
56  58  3
48  9  3

$$$$
