441934
  -OEChem-09132016212D

145151  0     1  0  0  0  0  0999 V2000
    9.4479   -1.7956    0.0000 O   0  0  0  0  0  0  0  0  0  0  0  0
    8.5483    3.7702    0.0000 O   0  0  0  0  0  0  0  0  0  0  0  0
    6.1120    4.4666    0.0000 O   0  0  0  0  0  0  0  0  0  0  0  0
   13.0929   -0.7646    0.0000 O   0  0  0  0  0  0  0  0  0  0  0  0
    7.7159   -1.7956    0.0000 O   0  0  0  0  0  0  0  0  0  0  0  0
    4.8184    5.6184    0.0000 O   0  0  0  0  0  0  0  0  0  0  0  0
    9.4479   -3.7956    0.0000 O   0  0  0  0  0  0  0  0  0  0  0  0
    7.7159   -4.7956    0.0000 O   0  0  0  0  0  0  0  0  0  0  0  0
    4.7821    2.9729    0.0000 O   0  0  0  0  0  0  0  0  0  0  0  0
    5.9838   -3.7956    0.0000 O   0  0  0  0  0  0  0  0  0  0  0  0
    2.8235    3.3778    0.0000 O   0  0  0  0  0  0  0  0  0  0  0  0
    2.1949    5.2764    0.0000 O   0  0  0  0  0  0  0  0  0  0  0  0
    5.1178   -2.2956    0.0000 O   0  0  0  0  0  0  0  0  0  0  0  0
    8.5819   -5.2956    0.0000 O   0  0  0  0  0  0  0  0  0  0  0  0
    4.1898    7.5170    0.0000 O   0  0  0  0  0  0  0  0  0  0  0  0
   11.1800   -4.7956    0.0000 O   0  0  0  0  0  0  0  0  0  0  0  0
   11.1800   -6.7956    0.0000 O   0  0  0  0  0  0  0  0  0  0  0  0
    9.4479   -7.7956    0.0000 O   0  0  0  0  0  0  0  0  0  0  0  0
    8.5599    0.7703    0.0000 C   0  0  1  0  0  0  0  0  0  0  0  0
    7.6919    1.2669    0.0000 C   0  0  1  0  0  0  0  0  0  0  0  0
    9.4240    1.2736    0.0000 C   0  0  1  0  0  0  0  0  0  0  0  0
   10.3359    0.7703    0.0000 C   0  0  2  0  0  0  0  0  0  0  0  0
    7.6881    2.2669    0.0000 C   0  0  1  0  0  0  0  0  0  0  0  0
   10.3480   -0.2713    0.0000 C   0  0  1  0  0  0  0  0  0  0  0  0
    8.5478   -0.2713    0.0000 C   0  0  0  0  0  0  0  0  0  0  0  0
    9.4201    2.2736    0.0000 C   0  0  0  0  0  0  0  0  0  0  0  0
    6.7407    2.5680    0.0000 C   0  0  2  0  0  0  0  0  0  0  0  0
    8.5522    2.7702    0.0000 C   0  0  1  0  0  0  0  0  0  0  0  0
    6.7469    0.9585    0.0000 C   0  0  0  0  0  0  0  0  0  0  0  0
    9.4479   -0.7956    0.0000 C   0  0  2  0  0  0  0  0  0  0  0  0
   11.2855   -0.8174    0.0000 C   0  0  0  0  0  0  0  0  0  0  0  0
    6.1602    1.7610    0.0000 C   0  0  0  0  0  0  0  0  0  0  0  0
   11.2606    1.3379    0.0000 C   0  0  0  0  0  0  0  0  0  0  0  0
    7.9200    0.0018    0.0000 C   0  0  0  0  0  0  0  0  0  0  0  0
    7.3536    0.3259    0.0000 C   0  0  0  0  0  0  0  0  0  0  0  0
   10.3244    1.7702    0.0000 C   0  0  0  0  0  0  0  0  0  0  0  0
   12.2230   -0.2713    0.0000 C   0  0  2  0  0  0  0  0  0  0  0  0
    6.4264    3.5173    0.0000 C   0  0  2  0  0  0  0  0  0  0  0  0
   12.2105    0.8136    0.0000 C   0  0  0  0  0  0  0  0  0  0  0  0
   11.7855   -1.6834    0.0000 C   0  0  0  0  0  0  0  0  0  0  0  0
   10.7855   -1.6834    0.0000 C   0  0  0  0  0  0  0  0  0  0  0  0
    5.4771    3.2030    0.0000 C   0  0  0  0  0  0  0  0  0  0  0  0
    7.3757    3.8316    0.0000 C   0  0  0  0  0  0  0  0  0  0  0  0
    8.5819   -2.2956    0.0000 C   0  0  2  0  0  0  0  0  0  0  0  0
    5.2746    2.2237    0.0000 C   0  0  0  0  0  0  0  0  0  0  0  0
    5.1328    4.6691    0.0000 C   0  0  2  0  0  0  0  0  0  0  0  0
    8.5819   -3.2956    0.0000 C   0  0  1  0  0  0  0  0  0  0  0  0
    7.7159   -3.7956    0.0000 C   0  0  2  0  0  0  0  0  0  0  0  0
    4.4678    3.9222    0.0000 C   0  0  1  0  0  0  0  0  0  0  0  0
    6.8498   -2.2956    0.0000 C   0  0  1  0  0  0  0  0  0  0  0  0
    4.3253    1.9094    0.0000 C   0  0  0  0  0  0  0  0  0  0  0  0
    6.8498   -3.2956    0.0000 C   0  0  1  0  0  0  0  0  0  0  0  0
    3.4885    4.1246    0.0000 C   0  0  2  0  0  0  0  0  0  0  0  0
    3.8391    5.8208    0.0000 C   0  0  1  0  0  0  0  0  0  0  0  0
    3.1742    5.0740    0.0000 C   0  0  1  0  0  0  0  0  0  0  0  0
    5.9838   -1.7956    0.0000 C   0  0  0  0  0  0  0  0  0  0  0  0
    4.1229    0.9301    0.0000 C   0  0  0  0  0  0  0  0  0  0  0  0
    9.4479   -4.7956    0.0000 C   0  0  2  0  0  0  0  0  0  0  0  0
    3.5248    6.7702    0.0000 C   0  0  0  0  0  0  0  0  0  0  0  0
   10.3139   -5.2956    0.0000 C   0  0  1  0  0  0  0  0  0  0  0  0
    3.1735    0.6157    0.0000 C   0  0  0  0  0  0  0  0  0  0  0  0
    4.8697    0.2651    0.0000 C   0  0  0  0  0  0  0  0  0  0  0  0
   10.3139   -6.2956    0.0000 C   0  0  2  0  0  0  0  0  0  0  0  0
    8.5819   -6.2956    0.0000 C   0  0  0  0  0  0  0  0  0  0  0  0
    9.4479   -6.7956    0.0000 C   0  0  1  0  0  0  0  0  0  0  0  0
   10.1551    1.7071    0.0000 H   0  0  0  0  0  0  0  0  0  0  0  0
    7.5949    3.1118    0.0000 H   0  0  0  0  0  0  0  0  0  0  0  0
   10.3480   -1.1213    0.0000 H   0  0  0  0  0  0  0  0  0  0  0  0
    7.9383   -0.1582    0.0000 H   0  0  0  0  0  0  0  0  0  0  0  0
    8.3321   -0.8525    0.0000 H   0  0  0  0  0  0  0  0  0  0  0  0
   10.0311    2.1683    0.0000 H   0  0  0  0  0  0  0  0  0  0  0  0
    9.6299    2.8570    0.0000 H   0  0  0  0  0  0  0  0  0  0  0  0
    5.9005    2.6966    0.0000 H   0  0  0  0  0  0  0  0  0  0  0  0
    8.0140    3.0782    0.0000 H   0  0  0  0  0  0  0  0  0  0  0  0
    6.2107    0.6472    0.0000 H   0  0  0  0  0  0  0  0  0  0  0  0
    7.0001    0.3926    0.0000 H   0  0  0  0  0  0  0  0  0  0  0  0
    9.9854   -1.1046    0.0000 H   0  0  0  0  0  0  0  0  0  0  0  0
    5.6977    2.1740    0.0000 H   0  0  0  0  0  0  0  0  0  0  0  0
    5.7009    1.3445    0.0000 H   0  0  0  0  0  0  0  0  0  0  0  0
   11.6486    1.8214    0.0000 H   0  0  0  0  0  0  0  0  0  0  0  0
   10.8506    1.8030    0.0000 H   0  0  0  0  0  0  0  0  0  0  0  0
    7.4436    0.3985    0.0000 H   0  0  0  0  0  0  0  0  0  0  0  0
    7.5233   -0.4747    0.0000 H   0  0  0  0  0  0  0  0  0  0  0  0
    8.3965   -0.3949    0.0000 H   0  0  0  0  0  0  0  0  0  0  0  0
    6.7701    0.5357    0.0000 H   0  0  0  0  0  0  0  0  0  0  0  0
    7.1437   -0.2575    0.0000 H   0  0  0  0  0  0  0  0  0  0  0  0
    7.9370    0.1161    0.0000 H   0  0  0  0  0  0  0  0  0  0  0  0
   10.9443    1.7774    0.0000 H   0  0  0  0  0  0  0  0  0  0  0  0
   10.3172    2.3902    0.0000 H   0  0  0  0  0  0  0  0  0  0  0  0
    9.7044    1.7630    0.0000 H   0  0  0  0  0  0  0  0  0  0  0  0
   12.7570    0.0439    0.0000 H   0  0  0  0  0  0  0  0  0  0  0  0
   12.8225    0.7146    0.0000 H   0  0  0  0  0  0  0  0  0  0  0  0
   12.4128    1.3997    0.0000 H   0  0  0  0  0  0  0  0  0  0  0  0
   11.2486   -1.9934    0.0000 H   0  0  0  0  0  0  0  0  0  0  0  0
   12.0955   -2.2204    0.0000 H   0  0  0  0  0  0  0  0  0  0  0  0
   12.3224   -1.3734    0.0000 H   0  0  0  0  0  0  0  0  0  0  0  0
   10.2486   -1.3734    0.0000 H   0  0  0  0  0  0  0  0  0  0  0  0
   10.4755   -2.2204    0.0000 H   0  0  0  0  0  0  0  0  0  0  0  0
   11.3224   -1.9934    0.0000 H   0  0  0  0  0  0  0  0  0  0  0  0
    9.0841    4.0823    0.0000 H   0  0  0  0  0  0  0  0  0  0  0  0
    5.3874    3.8165    0.0000 H   0  0  0  0  0  0  0  0  0  0  0  0
    4.8573    3.2212    0.0000 H   0  0  0  0  0  0  0  0  0  0  0  0
    7.5706    3.2431    0.0000 H   0  0  0  0  0  0  0  0  0  0  0  0
    7.9643    4.0265    0.0000 H   0  0  0  0  0  0  0  0  0  0  0  0
    7.1808    4.4202    0.0000 H   0  0  0  0  0  0  0  0  0  0  0  0
    9.1188   -2.6056    0.0000 H   0  0  0  0  0  0  0  0  0  0  0  0
   13.6274   -0.4505    0.0000 H   0  0  0  0  0  0  0  0  0  0  0  0
    5.3643    1.6102    0.0000 H   0  0  0  0  0  0  0  0  0  0  0  0
    5.8944    2.2055    0.0000 H   0  0  0  0  0  0  0  0  0  0  0  0
    5.3276    4.0805    0.0000 H   0  0  0  0  0  0  0  0  0  0  0  0
    8.5819   -3.9156    0.0000 H   0  0  0  0  0  0  0  0  0  0  0  0
    7.1789   -4.1056    0.0000 H   0  0  0  0  0  0  0  0  0  0  0  0
    4.0555    3.4591    0.0000 H   0  0  0  0  0  0  0  0  0  0  0  0
    6.8498   -1.6756    0.0000 H   0  0  0  0  0  0  0  0  0  0  0  0
    3.8622    2.3216    0.0000 H   0  0  0  0  0  0  0  0  0  0  0  0
    6.3129   -2.9856    0.0000 H   0  0  0  0  0  0  0  0  0  0  0  0
    2.8813    4.2502    0.0000 H   0  0  0  0  0  0  0  0  0  0  0  0
    4.2514    6.2839    0.0000 H   0  0  0  0  0  0  0  0  0  0  0  0
    2.9793    5.6625    0.0000 H   0  0  0  0  0  0  0  0  0  0  0  0
    6.3823   -1.3206    0.0000 H   0  0  0  0  0  0  0  0  0  0  0  0
    5.5853   -1.3206    0.0000 H   0  0  0  0  0  0  0  0  0  0  0  0
    8.9110   -4.4856    0.0000 H   0  0  0  0  0  0  0  0  0  0  0  0
    7.1789   -5.1056    0.0000 H   0  0  0  0  0  0  0  0  0  0  0  0
    4.3698    2.5098    0.0000 H   0  0  0  0  0  0  0  0  0  0  0  0
    5.9838   -4.4156    0.0000 H   0  0  0  0  0  0  0  0  0  0  0  0
    3.1404    7.2566    0.0000 H   0  0  0  0  0  0  0  0  0  0  0  0
    2.9790    6.4760    0.0000 H   0  0  0  0  0  0  0  0  0  0  0  0
    2.2164    3.5033    0.0000 H   0  0  0  0  0  0  0  0  0  0  0  0
   10.8509   -5.6056    0.0000 H   0  0  0  0  0  0  0  0  0  0  0  0
    2.9787    1.2043    0.0000 H   0  0  0  0  0  0  0  0  0  0  0  0
    2.5850    0.4209    0.0000 H   0  0  0  0  0  0  0  0  0  0  0  0
    3.3684    0.0272    0.0000 H   0  0  0  0  0  0  0  0  0  0  0  0
    4.4574   -0.1980    0.0000 H   0  0  0  0  0  0  0  0  0  0  0  0
    5.3328   -0.1472    0.0000 H   0  0  0  0  0  0  0  0  0  0  0  0
    5.2820    0.7282    0.0000 H   0  0  0  0  0  0  0  0  0  0  0  0
    2.0000    5.8650    0.0000 H   0  0  0  0  0  0  0  0  0  0  0  0
    4.5808   -1.9856    0.0000 H   0  0  0  0  0  0  0  0  0  0  0  0
   10.3139   -6.9156    0.0000 H   0  0  0  0  0  0  0  0  0  0  0  0
    7.9713   -6.1879    0.0000 H   0  0  0  0  0  0  0  0  0  0  0  0
    8.3698   -6.8782    0.0000 H   0  0  0  0  0  0  0  0  0  0  0  0
    8.9110   -7.1056    0.0000 H   0  0  0  0  0  0  0  0  0  0  0  0
    3.9949    8.1056    0.0000 H   0  0  0  0  0  0  0  0  0  0  0  0
   11.7169   -5.1056    0.0000 H   0  0  0  0  0  0  0  0  0  0  0  0
   11.1800   -7.4156    0.0000 H   0  0  0  0  0  0  0  0  0  0  0  0
    8.9110   -8.1056    0.0000 H   0  0  0  0  0  0  0  0  0  0  0  0
 30  1  1  1  0  0  0
 44  1  1  1  0  0  0
 28  2  1  6  0  0  0
  2100  1  0  0  0  0
 38  3  1  6  0  0  0
 46  3  1  1  0  0  0
 37  4  1  6  0  0  0
  4107  1  0  0  0  0
  5 44  1  0  0  0  0
  5 50  1  0  0  0  0
  6 46  1  0  0  0  0
  6 54  1  0  0  0  0
 47  7  1  6  0  0  0
 58  7  1  1  0  0  0
 48  8  1  1  0  0  0
  8123  1  0  0  0  0
 49  9  1  6  0  0  0
  9124  1  0  0  0  0
 52 10  1  6  0  0  0
 10125  1  0  0  0  0
 53 11  1  1  0  0  0
 11128  1  0  0  0  0
 55 12  1  6  0  0  0
 12136  1  0  0  0  0
 13 56  1  0  0  0  0
 13137  1  0  0  0  0
 14 58  1  0  0  0  0
 14 64  1  0  0  0  0
 15 59  1  0  0  0  0
 15142  1  0  0  0  0
 60 16  1  6  0  0  0
 16143  1  0  0  0  0
 63 17  1  1  0  0  0
 17144  1  0  0  0  0
 65 18  1  6  0  0  0
 18145  1  0  0  0  0
 19 20  1  0  0  0  0
 19 21  1  0  0  0  0
 19 25  1  0  0  0  0
 19 34  1  6  0  0  0
 20 23  1  0  0  0  0
 20 29  1  0  0  0  0
 20 35  1  1  0  0  0
 21 22  1  0  0  0  0
 21 26  1  0  0  0  0
 21 66  1  1  0  0  0
 22 24  1  0  0  0  0
 22 33  1  0  0  0  0
 22 36  1  6  0  0  0
 23 27  1  0  0  0  0
 23 28  1  0  0  0  0
 23 67  1  6  0  0  0
 24 30  1  0  0  0  0
 24 31  1  0  0  0  0
 24 68  1  1  0  0  0
 25 30  1  0  0  0  0
 25 69  1  0  0  0  0
 25 70  1  0  0  0  0
 26 28  1  0  0  0  0
 26 71  1  0  0  0  0
 26 72  1  0  0  0  0
 27 32  1  0  0  0  0
 27 38  1  0  0  0  0
 27 73  1  1  0  0  0
 28 74  1  0  0  0  0
 29 32  1  0  0  0  0
 29 75  1  0  0  0  0
 29 76  1  0  0  0  0
 30 77  1  0  0  0  0
 31 37  1  0  0  0  0
 31 40  1  0  0  0  0
 31 41  1  0  0  0  0
 32 78  1  0  0  0  0
 32 79  1  0  0  0  0
 33 39  1  0  0  0  0
 33 80  1  0  0  0  0
 33 81  1  0  0  0  0
 34 82  1  0  0  0  0
 34 83  1  0  0  0  0
 34 84  1  0  0  0  0
 35 85  1  0  0  0  0
 35 86  1  0  0  0  0
 35 87  1  0  0  0  0
 36 88  1  0  0  0  0
 36 89  1  0  0  0  0
 36 90  1  0  0  0  0
 37 39  1  0  0  0  0
 37 91  1  0  0  0  0
 38 42  1  0  0  0  0
 38 43  1  0  0  0  0
 39 92  1  0  0  0  0
 39 93  1  0  0  0  0
 40 94  1  0  0  0  0
 40 95  1  0  0  0  0
 40 96  1  0  0  0  0
 41 97  1  0  0  0  0
 41 98  1  0  0  0  0
 41 99  1  0  0  0  0
 42 45  1  0  0  0  0
 42101  1  0  0  0  0
 42102  1  0  0  0  0
 43103  1  0  0  0  0
 43104  1  0  0  0  0
 43105  1  0  0  0  0
 44 47  1  0  0  0  0
 44106  1  0  0  0  0
 45 51  1  0  0  0  0
 45108  1  0  0  0  0
 45109  1  0  0  0  0
 46 49  1  0  0  0  0
 46110  1  0  0  0  0
 47 48  1  0  0  0  0
 47111  1  0  0  0  0
 48 52  1  0  0  0  0
 48112  1  0  0  0  0
 49 53  1  0  0  0  0
 49113  1  0  0  0  0
 50 52  1  0  0  0  0
 50 56  1  1  0  0  0
 50114  1  0  0  0  0
 51 57  2  0  0  0  0
 51115  1  0  0  0  0
 52116  1  0  0  0  0
 53 55  1  0  0  0  0
 53117  1  0  0  0  0
 54 55  1  0  0  0  0
 54 59  1  1  0  0  0
 54118  1  0  0  0  0
 55119  1  0  0  0  0
 56120  1  0  0  0  0
 56121  1  0  0  0  0
 57 61  1  0  0  0  0
 57 62  1  0  0  0  0
 58 60  1  0  0  0  0
 58122  1  0  0  0  0
 59126  1  0  0  0  0
 59127  1  0  0  0  0
 60 63  1  0  0  0  0
 60129  1  0  0  0  0
 61130  1  0  0  0  0
 61131  1  0  0  0  0
 61132  1  0  0  0  0
 62133  1  0  0  0  0
 62134  1  0  0  0  0
 62135  1  0  0  0  0
 63 65  1  0  0  0  0
 63138  1  0  0  0  0
 64 65  1  0  0  0  0
 64139  1  0  0  0  0
 64140  1  0  0  0  0
 65141  1  0  0  0  0
M  END
> <PUBCHEM_COMPOUND_CID>
441934

> <PUBCHEM_COMPOUND_CANONICALIZED>
1

> <PUBCHEM_CACTVS_COMPLEXITY>
1670

> <PUBCHEM_CACTVS_HBOND_ACCEPTOR>
18

> <PUBCHEM_CACTVS_HBOND_DONOR>
12

> <PUBCHEM_CACTVS_ROTATABLE_BOND>
12

> <PUBCHEM_CACTVS_SUBSKEYS>
AAADcfB8PgAAAAAAAAAAAAAAAAAAAYAAAAA0aNECAAAAAGDAAAAAGgAACAAAD1SwgAMCCAAABgCAAiBCAAAAAAAgAAAACAAAAAgREAIAAQAiQAAFgAAPAAPA4PwPgAAAAAAAAADAAAYAADAAAQAACAAAAA==

> <PUBCHEM_IUPAC_OPENEYE_NAME>
(2S,3R,4S,5S,6R)-2-[(1S)-1-[(3S,5R,6S,8R,9R,10R,12R,13R,14R,17S)-6-[(2R,3R,4S,5S,6R)-4,5-dihydroxy-6-(hydroxymethyl)-3-[(2S,3R,4S,5R)-3,4,5-trihydroxytetrahydropyran-2-yl]oxy-tetrahydropyran-2-yl]oxy-3,12-dihydroxy-4,4,8,10,14-pentamethyl-2,3,5,6,7,9,11,12,13,15,16,17-dodecahydro-1H-cyclopenta[a]phenanthren-17-yl]-1,5-dimethyl-hex-4-enoxy]-6-(hydroxymethyl)tetrahydropyran-3,4,5-triol

> <PUBCHEM_IUPAC_CAS_NAME>
(2S,3R,4S,5S,6R)-2-[(2S)-2-[(3S,5R,6S,8R,9R,10R,12R,13R,14R,17S)-6-[[(2R,3R,4S,5S,6R)-4,5-dihydroxy-6-(hydroxymethyl)-3-[[(2S,3R,4S,5R)-3,4,5-trihydroxy-2-oxanyl]oxy]-2-oxanyl]oxy]-3,12-dihydroxy-4,4,8,10,14-pentamethyl-2,3,5,6,7,9,11,12,13,15,16,17-dodecahydro-1H-cyclopenta[a]phenanthren-17-yl]-6-methylhept-5-en-2-yl]oxy-6-(hydroxymethyl)oxane-3,4,5-triol

> <PUBCHEM_IUPAC_NAME_MARKUP>
(2<I>S</I>,3<I>R</I>,4<I>S</I>,5<I>S</I>,6<I>R</I>)-2-[(2<I>S</I>)-2-[(3<I>S</I>,5<I>R</I>,6<I>S</I>,8<I>R</I>,9<I>R</I>,10<I>R</I>,12<I>R</I>,13<I>R</I>,14<I>R</I>,17<I>S</I>)-6-[(2<I>R</I>,3<I>R</I>,4<I>S</I>,5<I>S</I>,6<I>R</I>)-4,5-dihydroxy-6-(hydroxymethyl)-3-[(2<I>S</I>,3<I>R</I>,4<I>S</I>,5<I>R</I>)-3,4,5-trihydroxyoxan-2-yl]oxyoxan-2-yl]oxy-3,12-dihydroxy-4,4,8,10,14-pentamethyl-2,3,5,6,7,9,11,12,13,15,16,17-dodecahydro-1<I>H</I>-cyclopenta[a]phenanthren-17-yl]-6-methylhept-5-en-2-yl]oxy-6-(hydroxymethyl)oxane-3,4,5-triol

> <PUBCHEM_IUPAC_NAME>
(2S,3R,4S,5S,6R)-2-[(2S)-2-[(3S,5R,6S,8R,9R,10R,12R,13R,14R,17S)-6-[(2R,3R,4S,5S,6R)-4,5-dihydroxy-6-(hydroxymethyl)-3-[(2S,3R,4S,5R)-3,4,5-trihydroxyoxan-2-yl]oxyoxan-2-yl]oxy-3,12-dihydroxy-4,4,8,10,14-pentamethyl-2,3,5,6,7,9,11,12,13,15,16,17-dodecahydro-1H-cyclopenta[a]phenanthren-17-yl]-6-methylhept-5-en-2-yl]oxy-6-(hydroxymethyl)oxane-3,4,5-triol

> <PUBCHEM_IUPAC_SYSTEMATIC_NAME>
(2R,3S,4S,5R,6S)-2-(hydroxymethyl)-6-[(2S)-2-[(3S,5R,6S,8R,9R,10R,12R,13R,14R,17S)-6-[(2R,3R,4S,5S,6R)-6-(hydroxymethyl)-4,5-bis(oxidanyl)-3-[(2S,3R,4S,5R)-3,4,5-tris(oxidanyl)oxan-2-yl]oxy-oxan-2-yl]oxy-4,4,8,10,14-pentamethyl-3,12-bis(oxidanyl)-2,3,5,6,7,9,11,12,13,15,16,17-dodecahydro-1H-cyclopenta[a]phenanthren-17-yl]-6-methyl-hept-5-en-2-yl]oxy-oxane-3,4,5-triol

> <PUBCHEM_IUPAC_TRADITIONAL_NAME>
(2S,3R,4S,5S,6R)-2-[(1S)-1-[(3S,5R,6S,8R,9R,10R,12R,13R,14R,17S)-6-[(2R,3R,4S,5S,6R)-4,5-dihydroxy-6-methylol-3-[(2S,3R,4S,5R)-3,4,5-trihydroxytetrahydropyran-2-yl]oxy-tetrahydropyran-2-yl]oxy-3,12-dihydroxy-4,4,8,10,14-pentamethyl-2,3,5,6,7,9,11,12,13,15,16,17-dodecahydro-1H-cyclopenta[a]phenanthren-17-yl]-1,5-dimethyl-hex-4-enoxy]-6-methylol-tetrahydropyran-3,4,5-triol

> <PUBCHEM_IUPAC_INCHI>
InChI=1S/C47H80O18/c1-21(2)10-9-13-47(8,65-41-37(59)34(56)32(54)26(18-48)62-41)22-11-15-45(6)30(22)23(50)16-28-44(5)14-12-29(52)43(3,4)39(44)25(17-46(28,45)7)61-42-38(35(57)33(55)27(19-49)63-42)64-40-36(58)31(53)24(51)20-60-40/h10,22-42,48-59H,9,11-20H2,1-8H3/t22-,23+,24+,25-,26+,27+,28+,29-,30-,31-,32+,33+,34-,35-,36+,37+,38+,39-,40-,41-,42+,44+,45+,46+,47-/m0/s1

> <PUBCHEM_IUPAC_INCHIKEY>
LLPWNQMSUYAGQI-OOSPGMBYSA-N

> <PUBCHEM_XLOGP3_AA>
1.1

> <PUBCHEM_EXACT_MASS>
932.534466

> <PUBCHEM_MOLECULAR_FORMULA>
C47H80O18

> <PUBCHEM_MOLECULAR_WEIGHT>
933.1

> <PUBCHEM_OPENEYE_CAN_SMILES>
CC(=CCCC(C)(C1CCC2(C1C(CC3C2(CC(C4C3(CCC(C4(C)C)O)C)OC5C(C(C(C(O5)CO)O)O)OC6C(C(C(CO6)O)O)O)C)O)C)OC7C(C(C(C(O7)CO)O)O)O)C

> <PUBCHEM_OPENEYE_ISO_SMILES>
CC(=CCC[C@@](C)([C@H]1CC[C@@]2([C@@H]1[C@@H](C[C@H]3[C@]2(C[C@@H]([C@@H]4[C@@]3(CC[C@@H](C4(C)C)O)C)O[C@H]5[C@@H]([C@H]([C@@H]([C@H](O5)CO)O)O)O[C@H]6[C@@H]([C@H]([C@@H](CO6)O)O)O)C)O)C)O[C@H]7[C@@H]([C@H]([C@@H]([C@H](O7)CO)O)O)O)C

> <PUBCHEM_CACTVS_TPSA>
298

> <PUBCHEM_MONOISOTOPIC_WEIGHT>
932.534466

> <PUBCHEM_TOTAL_CHARGE>
0

> <PUBCHEM_HEAVY_ATOM_COUNT>
65

> <PUBCHEM_ATOM_DEF_STEREO_COUNT>
25

> <PUBCHEM_ATOM_UDEF_STEREO_COUNT>
0

> <PUBCHEM_BOND_DEF_STEREO_COUNT>
0

> <PUBCHEM_BOND_UDEF_STEREO_COUNT>
0

> <PUBCHEM_ISOTOPIC_ATOM_COUNT>
0

> <PUBCHEM_COMPONENT_COUNT>
1

> <PUBCHEM_CACTVS_TAUTO_COUNT>
-1

> <PUBCHEM_COORDINATE_TYPE>
1
5
255

> <PUBCHEM_BONDANNOTATIONS>
30  1  5
44  1  5
52  10  6
53  11  5
55  12  6
60  16  6
63  17  5
65  18  6
19  34  6
28  2  6
20  35  5
21  66  5
22  36  6
23  67  6
24  68  5
27  73  5
38  3  6
46  3  5
37  4  6
50  56  5
54  59  5
47  7  6
58  7  5
48  8  5
49  9  6

$$$$
