9898279
  -OEChem-09132016112D

169176  0     1  0  0  0  0  0999 V2000
    7.3190    1.5069    0.0000 O   0  0  0  0  0  0  0  0  0  0  0  0
    9.0218   -4.6833    0.0000 O   0  0  0  0  0  0  0  0  0  0  0  0
    7.9151    3.9697    0.0000 O   0  0  0  0  0  0  0  0  0  0  0  0
    7.2898   -4.6833    0.0000 O   0  0  0  0  0  0  0  0  0  0  0  0
    7.5514    5.6631    0.0000 O   0  0  0  0  0  0  0  0  0  0  0  0
    9.0218   -6.6833    0.0000 O   0  0  0  0  0  0  0  0  0  0  0  0
    9.8705    4.3896    0.0000 O   0  0  0  0  0  0  0  0  0  0  0  0
    7.2898   -7.6833    0.0000 O   0  0  0  0  0  0  0  0  0  0  0  0
   10.4845    6.2931    0.0000 O   0  0  0  0  0  0  0  0  0  0  0  0
    5.5577   -6.6833    0.0000 O   0  0  0  0  0  0  0  0  0  0  0  0
    9.1431    7.7765    0.0000 O   0  0  0  0  0  0  0  0  0  0  0  0
    6.2100    7.1465    0.0000 O   0  0  0  0  0  0  0  0  0  0  0  0
    8.1558   -8.1833    0.0000 O   0  0  0  0  0  0  0  0  0  0  0  0
    4.6917   -5.1833    0.0000 O   0  0  0  0  0  0  0  0  0  0  0  0
   10.7539   -7.6833    0.0000 O   0  0  0  0  0  0  0  0  0  0  0  0
   10.7539   -9.6833    0.0000 O   0  0  0  0  0  0  0  0  0  0  0  0
    4.5616    7.6783    0.0000 O   0  0  0  0  0  0  0  0  0  0  0  0
    9.0218  -10.6833    0.0000 O   0  0  0  0  0  0  0  0  0  0  0  0
    7.2898  -10.6833    0.0000 O   0  0  0  0  0  0  0  0  0  0  0  0
    6.8240    9.0500    0.0000 O   0  0  0  0  0  0  0  0  0  0  0  0
    5.4826   10.5334    0.0000 O   0  0  0  0  0  0  0  0  0  0  0  0
    3.5272   10.1134    0.0000 O   0  0  0  0  0  0  0  0  0  0  0  0
    2.6062    7.2583    0.0000 O   0  0  0  0  0  0  0  0  0  0  0  0
    9.9229    0.0170    0.0000 C   0  0  1  0  0  0  0  0  0  0  0  0
    9.9190    1.0169    0.0000 C   0  0  1  0  0  0  0  0  0  0  0  0
    9.0588   -0.4864    0.0000 C   0  0  1  0  0  0  0  0  0  0  0  0
    9.0467   -1.5279    0.0000 C   0  0  2  0  0  0  0  0  0  0  0  0
    9.0511    1.5136    0.0000 C   0  0  1  0  0  0  0  0  0  0  0  0
    9.9468   -2.0522    0.0000 C   0  0  1  0  0  0  0  0  0  0  0  0
   10.8348   -0.4864    0.0000 C   0  0  0  0  0  0  0  0  0  0  0  0
    9.2565    2.4862    0.0000 C   0  0  2  0  0  0  0  0  0  0  0  0
    8.1908    0.0103    0.0000 C   0  0  0  0  0  0  0  0  0  0  0  0
    8.1870    1.0103    0.0000 C   0  0  1  0  0  0  0  0  0  0  0  0
   10.6535    1.6869    0.0000 C   0  0  0  0  0  0  0  0  0  0  0  0
   10.8469   -1.5279    0.0000 C   0  0  0  0  0  0  0  0  0  0  0  0
    9.9594   -3.1372    0.0000 C   0  0  0  0  0  0  0  0  0  0  0  0
   10.2449    2.5931    0.0000 C   0  0  0  0  0  0  0  0  0  0  0  0
    8.0968   -2.0522    0.0000 C   0  0  0  0  0  0  0  0  0  0  0  0
   10.9070    0.1944    0.0000 C   0  0  0  0  0  0  0  0  0  0  0  0
   10.9045    0.8471    0.0000 C   0  0  0  0  0  0  0  0  0  0  0  0
    8.1826   -1.0246    0.0000 C   0  0  0  0  0  0  0  0  0  0  0  0
    9.0218   -3.6833    0.0000 C   0  0  2  0  0  0  0  0  0  0  0  0
    8.5858    3.2279    0.0000 C   0  0  2  0  0  0  0  0  0  0  0  0
    8.0843   -3.1372    0.0000 C   0  0  0  0  0  0  0  0  0  0  0  0
   10.9593   -3.1294    0.0000 C   0  0  0  0  0  0  0  0  0  0  0  0
   10.4660   -3.9993    0.0000 C   0  0  0  0  0  0  0  0  0  0  0  0
    9.3276    3.8986    0.0000 C   0  0  0  0  0  0  0  0  0  0  0  0
    7.8441    2.5572    0.0000 C   0  0  0  0  0  0  0  0  0  0  0  0
   10.2793    3.5916    0.0000 C   0  0  0  0  0  0  0  0  0  0  0  0
    8.1558   -5.1833    0.0000 C   0  0  2  0  0  0  0  0  0  0  0  0
    8.2221    4.9214    0.0000 C   0  0  2  0  0  0  0  0  0  0  0  0
    8.1558   -6.1833    0.0000 C   0  0  1  0  0  0  0  0  0  0  0  0
    9.1998    5.1314    0.0000 C   0  0  1  0  0  0  0  0  0  0  0  0
   11.0210    4.2624    0.0000 C   0  0  0  0  0  0  0  0  0  0  0  0
    7.2898   -6.6833    0.0000 C   0  0  2  0  0  0  0  0  0  0  0  0
    9.5068    6.0831    0.0000 C   0  0  2  0  0  0  0  0  0  0  0  0
    6.4237   -5.1833    0.0000 C   0  0  1  0  0  0  0  0  0  0  0  0
    7.8584    6.6148    0.0000 C   0  0  1  0  0  0  0  0  0  0  0  0
    6.4237   -6.1833    0.0000 C   0  0  1  0  0  0  0  0  0  0  0  0
    8.8361    6.8248    0.0000 C   0  0  1  0  0  0  0  0  0  0  0  0
   11.9727    3.9554    0.0000 C   0  0  0  0  0  0  0  0  0  0  0  0
    5.5577   -4.6833    0.0000 C   0  0  0  0  0  0  0  0  0  0  0  0
    7.1877    7.3565    0.0000 C   0  0  0  0  0  0  0  0  0  0  0  0
    9.0218   -7.6833    0.0000 C   0  0  2  0  0  0  0  0  0  0  0  0
   12.7144    4.6261    0.0000 C   0  0  0  0  0  0  0  0  0  0  0  0
   12.1827    2.9777    0.0000 C   0  0  0  0  0  0  0  0  0  0  0  0
    9.8878   -8.1833    0.0000 C   0  0  1  0  0  0  0  0  0  0  0  0
    9.8878   -9.1833    0.0000 C   0  0  2  0  0  0  0  0  0  0  0  0
    8.1558   -9.1833    0.0000 C   0  0  1  0  0  0  0  0  0  0  0  0
    9.0218   -9.6833    0.0000 C   0  0  1  0  0  0  0  0  0  0  0  0
    5.5393    7.8883    0.0000 C   0  0  2  0  0  0  0  0  0  0  0  0
    7.2898   -9.6833    0.0000 C   0  0  0  0  0  0  0  0  0  0  0  0
    5.8463    8.8400    0.0000 C   0  0  1  0  0  0  0  0  0  0  0  0
    5.1756    9.5817    0.0000 C   0  0  2  0  0  0  0  0  0  0  0  0
    3.8909    8.4200    0.0000 C   0  0  1  0  0  0  0  0  0  0  0  0
    4.1979    9.3717    0.0000 C   0  0  1  0  0  0  0  0  0  0  0  0
    2.9132    8.2100    0.0000 C   0  0  0  0  0  0  0  0  0  0  0  0
    9.7933   -0.9142    0.0000 H   0  0  0  0  0  0  0  0  0  0  0  0
    8.3621    2.0115    0.0000 H   0  0  0  0  0  0  0  0  0  0  0  0
   10.6862   -2.4716    0.0000 H   0  0  0  0  0  0  0  0  0  0  0  0
   11.4469   -0.5854    0.0000 H   0  0  0  0  0  0  0  0  0  0  0  0
   11.0371    0.0997    0.0000 H   0  0  0  0  0  0  0  0  0  0  0  0
    9.5591    3.2805    0.0000 H   0  0  0  0  0  0  0  0  0  0  0  0
    7.5798    0.1156    0.0000 H   0  0  0  0  0  0  0  0  0  0  0  0
    7.9810   -0.5731    0.0000 H   0  0  0  0  0  0  0  0  0  0  0  0
    7.6512    0.6982    0.0000 H   0  0  0  0  0  0  0  0  0  0  0  0
   11.0208    1.1874    0.0000 H   0  0  0  0  0  0  0  0  0  0  0  0
   11.1888    1.9997    0.0000 H   0  0  0  0  0  0  0  0  0  0  0  0
   11.0627   -2.1092    0.0000 H   0  0  0  0  0  0  0  0  0  0  0  0
   11.4565   -1.4148    0.0000 H   0  0  0  0  0  0  0  0  0  0  0  0
   10.8337    2.7871    0.0000 H   0  0  0  0  0  0  0  0  0  0  0  0
   10.1138    3.1991    0.0000 H   0  0  0  0  0  0  0  0  0  0  0  0
    7.8945   -1.4662    0.0000 H   0  0  0  0  0  0  0  0  0  0  0  0
    7.4848   -2.1513    0.0000 H   0  0  0  0  0  0  0  0  0  0  0  0
   11.0170   -0.4158    0.0000 H   0  0  0  0  0  0  0  0  0  0  0  0
   11.5172    0.3044    0.0000 H   0  0  0  0  0  0  0  0  0  0  0  0
   10.7970    0.8046    0.0000 H   0  0  0  0  0  0  0  0  0  0  0  0
   10.7992    0.2361    0.0000 H   0  0  0  0  0  0  0  0  0  0  0  0
   11.5155    0.7418    0.0000 H   0  0  0  0  0  0  0  0  0  0  0  0
   11.0098    1.4581    0.0000 H   0  0  0  0  0  0  0  0  0  0  0  0
    8.4947   -0.4889    0.0000 H   0  0  0  0  0  0  0  0  0  0  0  0
    7.6469   -0.7125    0.0000 H   0  0  0  0  0  0  0  0  0  0  0  0
    7.8706   -1.5603    0.0000 H   0  0  0  0  0  0  0  0  0  0  0  0
    8.4843   -3.9922    0.0000 H   0  0  0  0  0  0  0  0  0  0  0  0
    7.4747   -3.0240    0.0000 H   0  0  0  0  0  0  0  0  0  0  0  0
    7.8685   -3.7184    0.0000 H   0  0  0  0  0  0  0  0  0  0  0  0
   10.9641   -3.7494    0.0000 H   0  0  0  0  0  0  0  0  0  0  0  0
   11.5793   -3.1247    0.0000 H   0  0  0  0  0  0  0  0  0  0  0  0
   10.9545   -2.5095    0.0000 H   0  0  0  0  0  0  0  0  0  0  0  0
    9.9315   -4.3134    0.0000 H   0  0  0  0  0  0  0  0  0  0  0  0
   10.7801   -4.5338    0.0000 H   0  0  0  0  0  0  0  0  0  0  0  0
   11.0005   -3.6852    0.0000 H   0  0  0  0  0  0  0  0  0  0  0  0
    6.7833    1.1949    0.0000 H   0  0  0  0  0  0  0  0  0  0  0  0
    9.6175    4.4467    0.0000 H   0  0  0  0  0  0  0  0  0  0  0  0
    8.8382    4.2793    0.0000 H   0  0  0  0  0  0  0  0  0  0  0  0
    7.4283    3.0171    0.0000 H   0  0  0  0  0  0  0  0  0  0  0  0
    7.3842    2.1414    0.0000 H   0  0  0  0  0  0  0  0  0  0  0  0
    8.2600    2.0974    0.0000 H   0  0  0  0  0  0  0  0  0  0  0  0
    9.9894    3.0436    0.0000 H   0  0  0  0  0  0  0  0  0  0  0  0
   10.7686    3.2110    0.0000 H   0  0  0  0  0  0  0  0  0  0  0  0
    8.6927   -5.4933    0.0000 H   0  0  0  0  0  0  0  0  0  0  0  0
    8.6380    4.4615    0.0000 H   0  0  0  0  0  0  0  0  0  0  0  0
    8.1558   -6.8033    0.0000 H   0  0  0  0  0  0  0  0  0  0  0  0
    9.8060    5.2616    0.0000 H   0  0  0  0  0  0  0  0  0  0  0  0
   10.8908    4.8685    0.0000 H   0  0  0  0  0  0  0  0  0  0  0  0
    6.7528   -6.9933    0.0000 H   0  0  0  0  0  0  0  0  0  0  0  0
    9.6972    6.6731    0.0000 H   0  0  0  0  0  0  0  0  0  0  0  0
    6.4237   -4.5633    0.0000 H   0  0  0  0  0  0  0  0  0  0  0  0
    7.2522    6.4846    0.0000 H   0  0  0  0  0  0  0  0  0  0  0  0
    6.4237   -6.8033    0.0000 H   0  0  0  0  0  0  0  0  0  0  0  0
    8.4203    7.2847    0.0000 H   0  0  0  0  0  0  0  0  0  0  0  0
   10.4767    4.5198    0.0000 H   0  0  0  0  0  0  0  0  0  0  0  0
    5.9562   -4.2083    0.0000 H   0  0  0  0  0  0  0  0  0  0  0  0
    5.1592   -4.2083    0.0000 H   0  0  0  0  0  0  0  0  0  0  0  0
    7.7128    7.6862    0.0000 H   0  0  0  0  0  0  0  0  0  0  0  0
    6.9542    7.9309    0.0000 H   0  0  0  0  0  0  0  0  0  0  0  0
    8.4849   -7.3733    0.0000 H   0  0  0  0  0  0  0  0  0  0  0  0
    6.7528   -7.9933    0.0000 H   0  0  0  0  0  0  0  0  0  0  0  0
   10.6749    6.8831    0.0000 H   0  0  0  0  0  0  0  0  0  0  0  0
   13.1303    4.1662    0.0000 H   0  0  0  0  0  0  0  0  0  0  0  0
   13.1743    5.0419    0.0000 H   0  0  0  0  0  0  0  0  0  0  0  0
   12.2986    5.0859    0.0000 H   0  0  0  0  0  0  0  0  0  0  0  0
   11.5765    2.8475    0.0000 H   0  0  0  0  0  0  0  0  0  0  0  0
   12.3129    2.3715    0.0000 H   0  0  0  0  0  0  0  0  0  0  0  0
   12.7889    3.1078    0.0000 H   0  0  0  0  0  0  0  0  0  0  0  0
    5.5577   -7.3033    0.0000 H   0  0  0  0  0  0  0  0  0  0  0  0
    8.7273    8.2364    0.0000 H   0  0  0  0  0  0  0  0  0  0  0  0
   10.4248   -8.4933    0.0000 H   0  0  0  0  0  0  0  0  0  0  0  0
    4.1548   -4.8733    0.0000 H   0  0  0  0  0  0  0  0  0  0  0  0
    9.8878   -9.8033    0.0000 H   0  0  0  0  0  0  0  0  0  0  0  0
    7.6189   -8.8733    0.0000 H   0  0  0  0  0  0  0  0  0  0  0  0
    8.4849   -9.9933    0.0000 H   0  0  0  0  0  0  0  0  0  0  0  0
    5.3490    7.2982    0.0000 H   0  0  0  0  0  0  0  0  0  0  0  0
   10.7539   -7.0633    0.0000 H   0  0  0  0  0  0  0  0  0  0  0  0
    7.0777   -9.1007    0.0000 H   0  0  0  0  0  0  0  0  0  0  0  0
    6.6792   -9.7909    0.0000 H   0  0  0  0  0  0  0  0  0  0  0  0
    6.0366    9.4300    0.0000 H   0  0  0  0  0  0  0  0  0  0  0  0
   11.2908   -9.3733    0.0000 H   0  0  0  0  0  0  0  0  0  0  0  0
    9.5588  -10.9933    0.0000 H   0  0  0  0  0  0  0  0  0  0  0  0
    4.7597   10.0416    0.0000 H   0  0  0  0  0  0  0  0  0  0  0  0
    3.7005    7.8299    0.0000 H   0  0  0  0  0  0  0  0  0  0  0  0
    3.5917    9.2415    0.0000 H   0  0  0  0  0  0  0  0  0  0  0  0
    7.8267  -10.9933    0.0000 H   0  0  0  0  0  0  0  0  0  0  0  0
    7.0143    9.6400    0.0000 H   0  0  0  0  0  0  0  0  0  0  0  0
    2.8902    8.8296    0.0000 H   0  0  0  0  0  0  0  0  0  0  0  0
    2.2990    8.2950    0.0000 H   0  0  0  0  0  0  0  0  0  0  0  0
    5.0667   10.9933    0.0000 H   0  0  0  0  0  0  0  0  0  0  0  0
    2.9210    9.9832    0.0000 H   0  0  0  0  0  0  0  0  0  0  0  0
    2.0000    7.1281    0.0000 H   0  0  0  0  0  0  0  0  0  0  0  0
 33  1  1  1  0  0  0
  1113  1  0  0  0  0
 42  2  1  1  0  0  0
 50  2  1  1  0  0  0
 43  3  1  1  0  0  0
 51  3  1  6  0  0  0
  4 50  1  0  0  0  0
  4 57  1  0  0  0  0
  5 51  1  0  0  0  0
  5 58  1  0  0  0  0
 52  6  1  6  0  0  0
 64  6  1  1  0  0  0
 53  7  1  1  0  0  0
  7132  1  0  0  0  0
 55  8  1  1  0  0  0
  8138  1  0  0  0  0
 56  9  1  6  0  0  0
  9139  1  0  0  0  0
 59 10  1  6  0  0  0
 10146  1  0  0  0  0
 60 11  1  1  0  0  0
 11147  1  0  0  0  0
 12 63  1  0  0  0  0
 71 12  1  6  0  0  0
 13 64  1  0  0  0  0
 13 69  1  0  0  0  0
 14 62  1  0  0  0  0
 14149  1  0  0  0  0
 67 15  1  6  0  0  0
 15154  1  0  0  0  0
 68 16  1  1  0  0  0
 16158  1  0  0  0  0
 17 71  1  0  0  0  0
 17 75  1  0  0  0  0
 70 18  1  6  0  0  0
 18159  1  0  0  0  0
 19 72  1  0  0  0  0
 19163  1  0  0  0  0
 73 20  1  1  0  0  0
 20164  1  0  0  0  0
 74 21  1  6  0  0  0
 21167  1  0  0  0  0
 76 22  1  1  0  0  0
 22168  1  0  0  0  0
 23 77  1  0  0  0  0
 23169  1  0  0  0  0
 24 25  1  0  0  0  0
 24 26  1  0  0  0  0
 24 30  1  0  0  0  0
 24 39  1  1  0  0  0
 25 28  1  0  0  0  0
 25 34  1  0  0  0  0
 25 40  1  6  0  0  0
 26 27  1  0  0  0  0
 26 32  1  0  0  0  0
 26 78  1  6  0  0  0
 27 29  1  0  0  0  0
 27 38  1  0  0  0  0
 27 41  1  1  0  0  0
 28 31  1  0  0  0  0
 28 33  1  0  0  0  0
 28 79  1  1  0  0  0
 29 35  1  0  0  0  0
 29 36  1  0  0  0  0
 29 80  1  6  0  0  0
 30 35  1  0  0  0  0
 30 81  1  0  0  0  0
 30 82  1  0  0  0  0
 31 37  1  0  0  0  0
 31 43  1  0  0  0  0
 31 83  1  6  0  0  0
 32 33  1  0  0  0  0
 32 84  1  0  0  0  0
 32 85  1  0  0  0  0
 33 86  1  0  0  0  0
 34 37  1  0  0  0  0
 34 87  1  0  0  0  0
 34 88  1  0  0  0  0
 35 89  1  0  0  0  0
 35 90  1  0  0  0  0
 36 42  1  0  0  0  0
 36 45  1  0  0  0  0
 36 46  1  0  0  0  0
 37 91  1  0  0  0  0
 37 92  1  0  0  0  0
 38 44  1  0  0  0  0
 38 93  1  0  0  0  0
 38 94  1  0  0  0  0
 39 95  1  0  0  0  0
 39 96  1  0  0  0  0
 39 97  1  0  0  0  0
 40 98  1  0  0  0  0
 40 99  1  0  0  0  0
 40100  1  0  0  0  0
 41101  1  0  0  0  0
 41102  1  0  0  0  0
 41103  1  0  0  0  0
 42 44  1  0  0  0  0
 42104  1  0  0  0  0
 43 47  1  0  0  0  0
 43 48  1  0  0  0  0
 44105  1  0  0  0  0
 44106  1  0  0  0  0
 45107  1  0  0  0  0
 45108  1  0  0  0  0
 45109  1  0  0  0  0
 46110  1  0  0  0  0
 46111  1  0  0  0  0
 46112  1  0  0  0  0
 47 49  1  0  0  0  0
 47114  1  0  0  0  0
 47115  1  0  0  0  0
 48116  1  0  0  0  0
 48117  1  0  0  0  0
 48118  1  0  0  0  0
 49 54  1  0  0  0  0
 49119  1  0  0  0  0
 49120  1  0  0  0  0
 50 52  1  0  0  0  0
 50121  1  0  0  0  0
 51 53  1  0  0  0  0
 51122  1  0  0  0  0
 52 55  1  0  0  0  0
 52123  1  0  0  0  0
 53 56  1  0  0  0  0
 53124  1  0  0  0  0
 54 61  2  0  0  0  0
 54125  1  0  0  0  0
 55 59  1  0  0  0  0
 55126  1  0  0  0  0
 56 60  1  0  0  0  0
 56127  1  0  0  0  0
 57 59  1  0  0  0  0
 57 62  1  1  0  0  0
 57128  1  0  0  0  0
 58 60  1  0  0  0  0
 58 63  1  6  0  0  0
 58129  1  0  0  0  0
 59130  1  0  0  0  0
 60131  1  0  0  0  0
 61 65  1  0  0  0  0
 61 66  1  0  0  0  0
 62133  1  0  0  0  0
 62134  1  0  0  0  0
 63135  1  0  0  0  0
 63136  1  0  0  0  0
 64 67  1  0  0  0  0
 64137  1  0  0  0  0
 65140  1  0  0  0  0
 65141  1  0  0  0  0
 65142  1  0  0  0  0
 66143  1  0  0  0  0
 66144  1  0  0  0  0
 66145  1  0  0  0  0
 67 68  1  0  0  0  0
 67148  1  0  0  0  0
 68 70  1  0  0  0  0
 68150  1  0  0  0  0
 69 70  1  0  0  0  0
 69 72  1  1  0  0  0
 69151  1  0  0  0  0
 70152  1  0  0  0  0
 71 73  1  0  0  0  0
 71153  1  0  0  0  0
 72155  1  0  0  0  0
 72156  1  0  0  0  0
 73 74  1  0  0  0  0
 73157  1  0  0  0  0
 74 76  1  0  0  0  0
 74160  1  0  0  0  0
 75 76  1  0  0  0  0
 75 77  1  6  0  0  0
 75161  1  0  0  0  0
 76162  1  0  0  0  0
 77165  1  0  0  0  0
 77166  1  0  0  0  0
M  END
> <PUBCHEM_COMPOUND_CID>
9898279

> <PUBCHEM_COMPOUND_CANONICALIZED>
1

> <PUBCHEM_CACTVS_COMPLEXITY>
2000

> <PUBCHEM_CACTVS_HBOND_ACCEPTOR>
23

> <PUBCHEM_CACTVS_HBOND_DONOR>
15

> <PUBCHEM_CACTVS_ROTATABLE_BOND>
16

> <PUBCHEM_CACTVS_SUBSKEYS>
AAADcfB8PgAAAAAAAAAAAAAAAAAAAYAAAAA0aNEiAAAAAGDAAAAAGgAACAAAD1SwgAMCCAAABgCAAiBCAAAAAAAgAAAACAAAAAgREAIAAQAiQAAFgAAPAAPA4PwPgAAAAAAAAADAAAYAADAAAQAACAAAAA==

> <PUBCHEM_IUPAC_OPENEYE_NAME>
(2R,3R,4S,5S,6R)-2-[[(2R,3S,4S,5R,6S)-6-[(1S)-1-[(3S,5R,8R,9R,10R,12R,13R,14R,17S)-3-[(2R,3R,4S,5S,6R)-4,5-dihydroxy-6-(hydroxymethyl)-3-[(2S,3R,4S,5S,6R)-3,4,5-trihydroxy-6-(hydroxymethyl)tetrahydropyran-2-yl]oxy-tetrahydropyran-2-yl]oxy-12-hydroxy-4,4,8,10,14-pentamethyl-2,3,5,6,7,9,11,12,13,15,16,17-dodecahydro-1H-cyclopenta[a]phenanthren-17-yl]-1,5-dimethyl-hex-4-enoxy]-3,4,5-trihydroxy-tetrahydropyran-2-yl]methoxy]-6-(hydroxymethyl)tetrahydropyran-3,4,5-triol

> <PUBCHEM_IUPAC_CAS_NAME>
(2R,3R,4S,5S,6R)-2-[[(2R,3S,4S,5R,6S)-6-[(2S)-2-[(3S,5R,8R,9R,10R,12R,13R,14R,17S)-3-[[(2R,3R,4S,5S,6R)-4,5-dihydroxy-6-(hydroxymethyl)-3-[[(2S,3R,4S,5S,6R)-3,4,5-trihydroxy-6-(hydroxymethyl)-2-oxanyl]oxy]-2-oxanyl]oxy]-12-hydroxy-4,4,8,10,14-pentamethyl-2,3,5,6,7,9,11,12,13,15,16,17-dodecahydro-1H-cyclopenta[a]phenanthren-17-yl]-6-methylhept-5-en-2-yl]oxy-3,4,5-trihydroxy-2-oxanyl]methoxy]-6-(hydroxymethyl)oxane-3,4,5-triol

> <PUBCHEM_IUPAC_NAME_MARKUP>
(2<I>R</I>,3<I>R</I>,4<I>S</I>,5<I>S</I>,6<I>R</I>)-2-[[(2<I>R</I>,3<I>S</I>,4<I>S</I>,5<I>R</I>,6<I>S</I>)-6-[(2<I>S</I>)-2-[(3<I>S</I>,5<I>R</I>,8<I>R</I>,9<I>R</I>,10<I>R</I>,12<I>R</I>,13<I>R</I>,14<I>R</I>,17<I>S</I>)-3-[(2<I>R</I>,3<I>R</I>,4<I>S</I>,5<I>S</I>,6<I>R</I>)-4,5-dihydroxy-6-(hydroxymethyl)-3-[(2<I>S</I>,3<I>R</I>,4<I>S</I>,5<I>S</I>,6<I>R</I>)-3,4,5-trihydroxy-6-(hydroxymethyl)oxan-2-yl]oxyoxan-2-yl]oxy-12-hydroxy-4,4,8,10,14-pentamethyl-2,3,5,6,7,9,11,12,13,15,16,17-dodecahydro-1<I>H</I>-cyclopenta[a]phenanthren-17-yl]-6-methylhept-5-en-2-yl]oxy-3,4,5-trihydroxyoxan-2-yl]methoxy]-6-(hydroxymethyl)oxane-3,4,5-triol

> <PUBCHEM_IUPAC_NAME>
(2R,3R,4S,5S,6R)-2-[[(2R,3S,4S,5R,6S)-6-[(2S)-2-[(3S,5R,8R,9R,10R,12R,13R,14R,17S)-3-[(2R,3R,4S,5S,6R)-4,5-dihydroxy-6-(hydroxymethyl)-3-[(2S,3R,4S,5S,6R)-3,4,5-trihydroxy-6-(hydroxymethyl)oxan-2-yl]oxyoxan-2-yl]oxy-12-hydroxy-4,4,8,10,14-pentamethyl-2,3,5,6,7,9,11,12,13,15,16,17-dodecahydro-1H-cyclopenta[a]phenanthren-17-yl]-6-methylhept-5-en-2-yl]oxy-3,4,5-trihydroxyoxan-2-yl]methoxy]-6-(hydroxymethyl)oxane-3,4,5-triol

> <PUBCHEM_IUPAC_SYSTEMATIC_NAME>
(2R,3S,4S,5R,6R)-2-(hydroxymethyl)-6-[[(2R,3S,4S,5R,6S)-6-[(2S)-2-[(3S,5R,8R,9R,10R,12R,13R,14R,17S)-3-[(2R,3R,4S,5S,6R)-6-(hydroxymethyl)-3-[(2S,3R,4S,5S,6R)-6-(hydroxymethyl)-3,4,5-tris(oxidanyl)oxan-2-yl]oxy-4,5-bis(oxidanyl)oxan-2-yl]oxy-4,4,8,10,14-pentamethyl-12-oxidanyl-2,3,5,6,7,9,11,12,13,15,16,17-dodecahydro-1H-cyclopenta[a]phenanthren-17-yl]-6-methyl-hept-5-en-2-yl]oxy-3,4,5-tris(oxidanyl)oxan-2-yl]methoxy]oxane-3,4,5-triol

> <PUBCHEM_IUPAC_TRADITIONAL_NAME>
(2R,3R,4S,5S,6R)-2-[[(2R,3S,4S,5R,6S)-6-[(1S)-1-[(3S,5R,8R,9R,10R,12R,13R,14R,17S)-3-[(2R,3R,4S,5S,6R)-4,5-dihydroxy-6-methylol-3-[(2S,3R,4S,5S,6R)-3,4,5-trihydroxy-6-methylol-tetrahydropyran-2-yl]oxy-tetrahydropyran-2-yl]oxy-12-hydroxy-4,4,8,10,14-pentamethyl-2,3,5,6,7,9,11,12,13,15,16,17-dodecahydro-1H-cyclopenta[a]phenanthren-17-yl]-1,5-dimethyl-hex-4-enoxy]-3,4,5-trihydroxy-tetrahydropyran-2-yl]methoxy]-6-methylol-tetrahydropyran-3,4,5-triol

> <PUBCHEM_IUPAC_INCHI>
InChI=1S/C54H92O23/c1-23(2)10-9-14-54(8,77-48-44(69)40(65)37(62)29(74-48)22-70-46-42(67)38(63)34(59)26(19-55)71-46)24-11-16-53(7)33(24)25(58)18-31-51(5)15-13-32(50(3,4)30(51)12-17-52(31,53)6)75-49-45(41(66)36(61)28(21-57)73-49)76-47-43(68)39(64)35(60)27(20-56)72-47/h10,24-49,55-69H,9,11-22H2,1-8H3/t24-,25+,26+,27+,28+,29+,30-,31+,32-,33-,34+,35+,36+,37+,38-,39-,40-,41-,42+,43+,44+,45+,46+,47-,48-,49-,51-,52+,53+,54-/m0/s1

> <PUBCHEM_IUPAC_INCHIKEY>
GZYPWOGIYAIIPV-JBDTYSNRSA-N

> <PUBCHEM_XLOGP3_AA>
0.3

> <PUBCHEM_EXACT_MASS>
1108.602939

> <PUBCHEM_MOLECULAR_FORMULA>
C54H92O23

> <PUBCHEM_MOLECULAR_WEIGHT>
1109.3

> <PUBCHEM_OPENEYE_CAN_SMILES>
CC(=CCCC(C)(C1CCC2(C1C(CC3C2(CCC4C3(CCC(C4(C)C)OC5C(C(C(C(O5)CO)O)O)OC6C(C(C(C(O6)CO)O)O)O)C)C)O)C)OC7C(C(C(C(O7)COC8C(C(C(C(O8)CO)O)O)O)O)O)O)C

> <PUBCHEM_OPENEYE_ISO_SMILES>
CC(=CCC[C@@](C)([C@H]1CC[C@@]2([C@@H]1[C@@H](C[C@H]3[C@]2(CC[C@@H]4[C@@]3(CC[C@@H](C4(C)C)O[C@H]5[C@@H]([C@H]([C@@H]([C@H](O5)CO)O)O)O[C@H]6[C@@H]([C@H]([C@@H]([C@H](O6)CO)O)O)O)C)C)O)C)O[C@H]7[C@@H]([C@H]([C@@H]([C@H](O7)CO[C@H]8[C@@H]([C@H]([C@@H]([C@H](O8)CO)O)O)O)O)O)O)C

> <PUBCHEM_CACTVS_TPSA>
377

> <PUBCHEM_MONOISOTOPIC_WEIGHT>
1108.602939

> <PUBCHEM_TOTAL_CHARGE>
0

> <PUBCHEM_HEAVY_ATOM_COUNT>
77

> <PUBCHEM_ATOM_DEF_STEREO_COUNT>
30

> <PUBCHEM_ATOM_UDEF_STEREO_COUNT>
0

> <PUBCHEM_BOND_DEF_STEREO_COUNT>
0

> <PUBCHEM_BOND_UDEF_STEREO_COUNT>
0

> <PUBCHEM_ISOTOPIC_ATOM_COUNT>
0

> <PUBCHEM_COMPONENT_COUNT>
1

> <PUBCHEM_CACTVS_TAUTO_COUNT>
-1

> <PUBCHEM_COORDINATE_TYPE>
1
5
255

> <PUBCHEM_BONDANNOTATIONS>
33  1  5
59  10  6
60  11  5
71  12  6
67  15  6
68  16  5
70  18  6
42  2  5
50  2  5
73  20  5
74  21  6
76  22  5
24  39  5
25  40  6
26  78  6
27  41  5
28  79  5
29  80  6
43  3  5
51  3  6
31  83  6
57  62  5
58  63  6
52  6  6
64  6  5
69  72  5
53  7  5
75  77  6
55  8  5
56  9  6

$$$$
