9832350
  -OEChem-11202012182D

148152  0     1  0  0  0  0  0999 V2000
   20.1865   -4.4699    0.0000 O   0  0  0  0  0  0  0  0  0  0  0  0
   18.4545   -4.4699    0.0000 O   0  0  0  0  0  0  0  0  0  0  0  0
   20.1865   -6.4699    0.0000 O   0  0  0  0  0  0  0  0  0  0  0  0
   18.4545   -7.4699    0.0000 O   0  0  0  0  0  0  0  0  0  0  0  0
   16.7224   -6.4699    0.0000 O   0  0  0  0  0  0  0  0  0  0  0  0
   15.8564   -4.9699    0.0000 O   0  0  0  0  0  0  0  0  0  0  0  0
   14.9904   -3.4699    0.0000 O   0  0  0  0  0  0  0  0  0  0  0  0
   20.2158    1.7270    0.0000 C   0  0  1  0  0  0  0  0  0  0  0  0
   21.0837    1.2303    0.0000 C   0  0  2  0  0  0  0  0  0  0  0  0
   21.0876    0.2303    0.0000 C   0  0  1  0  0  0  0  0  0  0  0  0
   20.2235   -0.2730    0.0000 C   0  0  1  0  0  0  0  0  0  0  0  0
   20.4212    2.6996    0.0000 C   0  0  2  0  0  0  0  0  0  0  0  0
   19.3517    1.2236    0.0000 C   0  0  0  0  0  0  0  0  0  0  0  0
   20.2115   -1.3146    0.0000 C   0  0  2  0  0  0  0  0  0  0  0  0
   21.8182    1.9002    0.0000 C   0  0  0  0  0  0  0  0  0  0  0  0
   19.3556    0.2237    0.0000 C   0  0  0  0  0  0  0  0  0  0  0  0
   21.4096    2.8065    0.0000 C   0  0  0  0  0  0  0  0  0  0  0  0
   21.9995   -0.2730    0.0000 C   0  0  0  0  0  0  0  0  0  0  0  0
   19.7505    3.4413    0.0000 C   0  0  1  0  0  0  0  0  0  0  0  0
   19.3478    2.2236    0.0000 C   0  0  0  0  0  0  0  0  0  0  0  0
   21.1115   -1.8389    0.0000 C   0  0  0  0  0  0  0  0  0  0  0  0
   19.2615   -1.8389    0.0000 C   0  0  0  0  0  0  0  0  0  0  0  0
   22.0116   -1.3146    0.0000 C   0  0  0  0  0  0  0  0  0  0  0  0
   19.3474   -0.8112    0.0000 C   0  0  0  0  0  0  0  0  0  0  0  0
   21.1241   -2.9238    0.0000 C   0  0  0  0  0  0  0  0  0  0  0  0
   19.2490   -2.9238    0.0000 C   0  0  0  0  0  0  0  0  0  0  0  0
   20.0575    4.3930    0.0000 C   0  0  0  0  0  0  0  0  0  0  0  0
   20.1865   -3.4699    0.0000 C   0  0  2  0  0  0  0  0  0  0  0  0
   18.7728    3.2313    0.0000 C   0  0  0  0  0  0  0  0  0  0  0  0
   19.3868    5.1348    0.0000 C   0  0  0  0  0  0  0  0  0  0  0  0
   19.6938    6.0865    0.0000 C   0  0  2  0  0  0  0  0  0  0  0  0
   19.3205   -4.9699    0.0000 C   0  0  2  0  0  0  0  0  0  0  0  0
   19.0231    6.8282    0.0000 C   0  0  0  0  0  0  0  0  0  0  0  0
   20.6715    6.2964    0.0000 C   0  0  0  0  0  0  0  0  0  0  0  0
   19.3205   -5.9699    0.0000 C   0  0  1  0  0  0  0  0  0  0  0  0
   19.3301    7.7799    0.0000 C   0  0  0  0  0  0  0  0  0  0  0  0
   18.0454    6.6182    0.0000 C   0  0  0  0  0  0  0  0  0  0  0  0
   20.9785    7.2482    0.0000 C   0  0  0  0  0  0  0  0  0  0  0  0
   18.4545   -6.4699    0.0000 C   0  0  2  0  0  0  0  0  0  0  0  0
   17.5885   -4.9699    0.0000 C   0  0  1  0  0  0  0  0  0  0  0  0
   17.5885   -5.9699    0.0000 C   0  0  1  0  0  0  0  0  0  0  0  0
   16.7224   -4.4699    0.0000 C   0  0  0  0  0  0  0  0  0  0  0  0
   14.9904   -4.4699    0.0000 C   0  0  0  0  0  0  0  0  0  0  0  0
   14.1244   -4.9699    0.0000 C   0  0  0  0  0  0  0  0  0  0  0  0
   13.2583   -4.4699    0.0000 C   0  0  0  0  0  0  0  0  0  0  0  0
   12.3923   -4.9699    0.0000 C   0  0  0  0  0  0  0  0  0  0  0  0
   11.5263   -4.4699    0.0000 C   0  0  0  0  0  0  0  0  0  0  0  0
   10.6603   -4.9699    0.0000 C   0  0  0  0  0  0  0  0  0  0  0  0
    9.7942   -4.4699    0.0000 C   0  0  0  0  0  0  0  0  0  0  0  0
    8.9282   -4.9699    0.0000 C   0  0  0  0  0  0  0  0  0  0  0  0
    8.0622   -4.4699    0.0000 C   0  0  0  0  0  0  0  0  0  0  0  0
    7.1962   -4.9699    0.0000 C   0  0  0  0  0  0  0  0  0  0  0  0
    6.3301   -4.4699    0.0000 C   0  0  0  0  0  0  0  0  0  0  0  0
    5.4641   -4.9699    0.0000 C   0  0  0  0  0  0  0  0  0  0  0  0
    4.5981   -4.4699    0.0000 C   0  0  0  0  0  0  0  0  0  0  0  0
    3.7320   -4.9699    0.0000 C   0  0  0  0  0  0  0  0  0  0  0  0
    2.8660   -4.4699    0.0000 C   0  0  0  0  0  0  0  0  0  0  0  0
    2.0000   -4.9699    0.0000 C   0  0  0  0  0  0  0  0  0  0  0  0
   21.8620    0.8886    0.0000 H   0  0  0  0  0  0  0  0  0  0  0  0
   21.8188    0.6638    0.0000 H   0  0  0  0  0  0  0  0  0  0  0  0
   20.9580   -0.7008    0.0000 H   0  0  0  0  0  0  0  0  0  0  0  0
   20.7238    3.4939    0.0000 H   0  0  0  0  0  0  0  0  0  0  0  0
   19.1374    1.8054    0.0000 H   0  0  0  0  0  0  0  0  0  0  0  0
   18.7415    1.1136    0.0000 H   0  0  0  0  0  0  0  0  0  0  0  0
   22.1855    1.4008    0.0000 H   0  0  0  0  0  0  0  0  0  0  0  0
   22.3535    2.2131    0.0000 H   0  0  0  0  0  0  0  0  0  0  0  0
   18.7446    0.3290    0.0000 H   0  0  0  0  0  0  0  0  0  0  0  0
   19.1458   -0.3598    0.0000 H   0  0  0  0  0  0  0  0  0  0  0  0
   21.9984    3.0005    0.0000 H   0  0  0  0  0  0  0  0  0  0  0  0
   21.2785    3.4124    0.0000 H   0  0  0  0  0  0  0  0  0  0  0  0
   22.6116   -0.3720    0.0000 H   0  0  0  0  0  0  0  0  0  0  0  0
   22.2018    0.3131    0.0000 H   0  0  0  0  0  0  0  0  0  0  0  0
   19.3347    3.9012    0.0000 H   0  0  0  0  0  0  0  0  0  0  0  0
   19.6558    2.7618    0.0000 H   0  0  0  0  0  0  0  0  0  0  0  0
   18.8097    2.5316    0.0000 H   0  0  0  0  0  0  0  0  0  0  0  0
   19.0399    1.6855    0.0000 H   0  0  0  0  0  0  0  0  0  0  0  0
   19.0593   -1.2528    0.0000 H   0  0  0  0  0  0  0  0  0  0  0  0
   18.6495   -1.9379    0.0000 H   0  0  0  0  0  0  0  0  0  0  0  0
   22.5509   -1.6204    0.0000 H   0  0  0  0  0  0  0  0  0  0  0  0
   19.6594   -0.2755    0.0000 H   0  0  0  0  0  0  0  0  0  0  0  0
   18.8116   -0.4992    0.0000 H   0  0  0  0  0  0  0  0  0  0  0  0
   19.0353   -1.3470    0.0000 H   0  0  0  0  0  0  0  0  0  0  0  0
   21.3399   -3.5050    0.0000 H   0  0  0  0  0  0  0  0  0  0  0  0
   21.7337   -2.8106    0.0000 H   0  0  0  0  0  0  0  0  0  0  0  0
   18.6394   -2.8106    0.0000 H   0  0  0  0  0  0  0  0  0  0  0  0
   19.0332   -3.5050    0.0000 H   0  0  0  0  0  0  0  0  0  0  0  0
   20.6056    4.1031    0.0000 H   0  0  0  0  0  0  0  0  0  0  0  0
   20.4382    4.8824    0.0000 H   0  0  0  0  0  0  0  0  0  0  0  0
   19.6490   -3.7789    0.0000 H   0  0  0  0  0  0  0  0  0  0  0  0
   18.6426    3.8375    0.0000 H   0  0  0  0  0  0  0  0  0  0  0  0
   18.1667    3.1011    0.0000 H   0  0  0  0  0  0  0  0  0  0  0  0
   18.9030    2.6252    0.0000 H   0  0  0  0  0  0  0  0  0  0  0  0
   18.8388    5.4247    0.0000 H   0  0  0  0  0  0  0  0  0  0  0  0
   19.0062    4.6454    0.0000 H   0  0  0  0  0  0  0  0  0  0  0  0
   20.3000    6.2166    0.0000 H   0  0  0  0  0  0  0  0  0  0  0  0
   19.8574   -5.2799    0.0000 H   0  0  0  0  0  0  0  0  0  0  0  0
   18.6073    7.2880    0.0000 H   0  0  0  0  0  0  0  0  0  0  0  0
   20.6945    5.6769    0.0000 H   0  0  0  0  0  0  0  0  0  0  0  0
   21.2857    6.2115    0.0000 H   0  0  0  0  0  0  0  0  0  0  0  0
   19.3205   -6.5899    0.0000 H   0  0  0  0  0  0  0  0  0  0  0  0
   19.9202    7.5896    0.0000 H   0  0  0  0  0  0  0  0  0  0  0  0
   19.5205    8.3700    0.0000 H   0  0  0  0  0  0  0  0  0  0  0  0
   18.7401    7.9702    0.0000 H   0  0  0  0  0  0  0  0  0  0  0  0
   17.9152    7.2244    0.0000 H   0  0  0  0  0  0  0  0  0  0  0  0
   17.4392    6.4880    0.0000 H   0  0  0  0  0  0  0  0  0  0  0  0
   18.1756    6.0120    0.0000 H   0  0  0  0  0  0  0  0  0  0  0  0
   21.5686    7.0578    0.0000 H   0  0  0  0  0  0  0  0  0  0  0  0
   21.1689    7.8382    0.0000 H   0  0  0  0  0  0  0  0  0  0  0  0
   20.3885    7.4385    0.0000 H   0  0  0  0  0  0  0  0  0  0  0  0
   17.9175   -6.7799    0.0000 H   0  0  0  0  0  0  0  0  0  0  0  0
   17.5885   -4.3499    0.0000 H   0  0  0  0  0  0  0  0  0  0  0  0
   17.5885   -6.5899    0.0000 H   0  0  0  0  0  0  0  0  0  0  0  0
   20.1865   -7.0899    0.0000 H   0  0  0  0  0  0  0  0  0  0  0  0
   17.1210   -3.9950    0.0000 H   0  0  0  0  0  0  0  0  0  0  0  0
   16.3239   -3.9950    0.0000 H   0  0  0  0  0  0  0  0  0  0  0  0
   17.9175   -7.7799    0.0000 H   0  0  0  0  0  0  0  0  0  0  0  0
   16.7224   -7.0899    0.0000 H   0  0  0  0  0  0  0  0  0  0  0  0
   13.7258   -5.4448    0.0000 H   0  0  0  0  0  0  0  0  0  0  0  0
   14.5229   -5.4448    0.0000 H   0  0  0  0  0  0  0  0  0  0  0  0
   13.6569   -3.9950    0.0000 H   0  0  0  0  0  0  0  0  0  0  0  0
   12.8598   -3.9950    0.0000 H   0  0  0  0  0  0  0  0  0  0  0  0
   11.9938   -5.4448    0.0000 H   0  0  0  0  0  0  0  0  0  0  0  0
   12.7908   -5.4448    0.0000 H   0  0  0  0  0  0  0  0  0  0  0  0
   11.9248   -3.9950    0.0000 H   0  0  0  0  0  0  0  0  0  0  0  0
   11.1278   -3.9950    0.0000 H   0  0  0  0  0  0  0  0  0  0  0  0
   10.2617   -5.4448    0.0000 H   0  0  0  0  0  0  0  0  0  0  0  0
   11.0588   -5.4448    0.0000 H   0  0  0  0  0  0  0  0  0  0  0  0
   10.1928   -3.9950    0.0000 H   0  0  0  0  0  0  0  0  0  0  0  0
    9.3957   -3.9950    0.0000 H   0  0  0  0  0  0  0  0  0  0  0  0
    8.5297   -5.4448    0.0000 H   0  0  0  0  0  0  0  0  0  0  0  0
    9.3267   -5.4448    0.0000 H   0  0  0  0  0  0  0  0  0  0  0  0
    8.4607   -3.9950    0.0000 H   0  0  0  0  0  0  0  0  0  0  0  0
    7.6636   -3.9950    0.0000 H   0  0  0  0  0  0  0  0  0  0  0  0
    6.7976   -5.4448    0.0000 H   0  0  0  0  0  0  0  0  0  0  0  0
    7.5947   -5.4448    0.0000 H   0  0  0  0  0  0  0  0  0  0  0  0
    6.7287   -3.9950    0.0000 H   0  0  0  0  0  0  0  0  0  0  0  0
    5.9316   -3.9950    0.0000 H   0  0  0  0  0  0  0  0  0  0  0  0
    5.0656   -5.4448    0.0000 H   0  0  0  0  0  0  0  0  0  0  0  0
    5.8626   -5.4448    0.0000 H   0  0  0  0  0  0  0  0  0  0  0  0
    4.9966   -3.9950    0.0000 H   0  0  0  0  0  0  0  0  0  0  0  0
    4.1996   -3.9950    0.0000 H   0  0  0  0  0  0  0  0  0  0  0  0
    3.3335   -5.4448    0.0000 H   0  0  0  0  0  0  0  0  0  0  0  0
    4.1306   -5.4448    0.0000 H   0  0  0  0  0  0  0  0  0  0  0  0
    3.2646   -3.9950    0.0000 H   0  0  0  0  0  0  0  0  0  0  0  0
    2.4675   -3.9950    0.0000 H   0  0  0  0  0  0  0  0  0  0  0  0
    1.6900   -4.4330    0.0000 H   0  0  0  0  0  0  0  0  0  0  0  0
    1.4631   -5.2799    0.0000 H   0  0  0  0  0  0  0  0  0  0  0  0
    2.3100   -5.5068    0.0000 H   0  0  0  0  0  0  0  0  0  0  0  0
 28  1  1  1  0  0  0
 32  1  1  1  0  0  0
  2 32  1  0  0  0  0
  2 40  1  0  0  0  0
 35  3  1  6  0  0  0
  3113  1  0  0  0  0
 39  4  1  1  0  0  0
  4116  1  0  0  0  0
 41  5  1  6  0  0  0
  5117  1  0  0  0  0
  6 42  1  0  0  0  0
  6 43  1  0  0  0  0
  7 43  2  0  0  0  0
  8  9  1  0  0  0  0
  8 12  1  0  0  0  0
  8 13  1  0  0  0  0
  8 20  1  1  0  0  0
  9 10  1  0  0  0  0
  9 15  1  0  0  0  0
  9 59  1  6  0  0  0
 10 11  1  0  0  0  0
 10 18  1  0  0  0  0
 10 60  1  1  0  0  0
 11 14  1  0  0  0  0
 11 16  1  0  0  0  0
 11 61  1  6  0  0  0
 12 17  1  0  0  0  0
 12 19  1  0  0  0  0
 12 62  1  6  0  0  0
 13 16  1  0  0  0  0
 13 63  1  0  0  0  0
 13 64  1  0  0  0  0
 14 21  1  0  0  0  0
 14 22  1  0  0  0  0
 14 24  1  1  0  0  0
 15 17  1  0  0  0  0
 15 65  1  0  0  0  0
 15 66  1  0  0  0  0
 16 67  1  0  0  0  0
 16 68  1  0  0  0  0
 17 69  1  0  0  0  0
 17 70  1  0  0  0  0
 18 23  1  0  0  0  0
 18 71  1  0  0  0  0
 18 72  1  0  0  0  0
 19 27  1  0  0  0  0
 19 29  1  6  0  0  0
 19 73  1  0  0  0  0
 20 74  1  0  0  0  0
 20 75  1  0  0  0  0
 20 76  1  0  0  0  0
 21 23  2  0  0  0  0
 21 25  1  0  0  0  0
 22 26  1  0  0  0  0
 22 77  1  0  0  0  0
 22 78  1  0  0  0  0
 23 79  1  0  0  0  0
 24 80  1  0  0  0  0
 24 81  1  0  0  0  0
 24 82  1  0  0  0  0
 25 28  1  0  0  0  0
 25 83  1  0  0  0  0
 25 84  1  0  0  0  0
 26 28  1  0  0  0  0
 26 85  1  0  0  0  0
 26 86  1  0  0  0  0
 27 30  1  0  0  0  0
 27 87  1  0  0  0  0
 27 88  1  0  0  0  0
 28 89  1  0  0  0  0
 29 90  1  0  0  0  0
 29 91  1  0  0  0  0
 29 92  1  0  0  0  0
 31 30  1  6  0  0  0
 30 93  1  0  0  0  0
 30 94  1  0  0  0  0
 31 33  1  0  0  0  0
 31 34  1  0  0  0  0
 31 95  1  0  0  0  0
 32 35  1  0  0  0  0
 32 96  1  0  0  0  0
 33 36  1  0  0  0  0
 33 37  1  0  0  0  0
 33 97  1  0  0  0  0
 34 38  1  0  0  0  0
 34 98  1  0  0  0  0
 34 99  1  0  0  0  0
 35 39  1  0  0  0  0
 35100  1  0  0  0  0
 36101  1  0  0  0  0
 36102  1  0  0  0  0
 36103  1  0  0  0  0
 37104  1  0  0  0  0
 37105  1  0  0  0  0
 37106  1  0  0  0  0
 38107  1  0  0  0  0
 38108  1  0  0  0  0
 38109  1  0  0  0  0
 39 41  1  0  0  0  0
 39110  1  0  0  0  0
 40 41  1  0  0  0  0
 40 42  1  1  0  0  0
 40111  1  0  0  0  0
 41112  1  0  0  0  0
 42114  1  0  0  0  0
 42115  1  0  0  0  0
 43 44  1  0  0  0  0
 44 45  1  0  0  0  0
 44118  1  0  0  0  0
 44119  1  0  0  0  0
 45 46  1  0  0  0  0
 45120  1  0  0  0  0
 45121  1  0  0  0  0
 46 47  1  0  0  0  0
 46122  1  0  0  0  0
 46123  1  0  0  0  0
 47 48  1  0  0  0  0
 47124  1  0  0  0  0
 47125  1  0  0  0  0
 48 49  1  0  0  0  0
 48126  1  0  0  0  0
 48127  1  0  0  0  0
 49 50  1  0  0  0  0
 49128  1  0  0  0  0
 49129  1  0  0  0  0
 50 51  1  0  0  0  0
 50130  1  0  0  0  0
 50131  1  0  0  0  0
 51 52  1  0  0  0  0
 51132  1  0  0  0  0
 51133  1  0  0  0  0
 52 53  1  0  0  0  0
 52134  1  0  0  0  0
 52135  1  0  0  0  0
 53 54  1  0  0  0  0
 53136  1  0  0  0  0
 53137  1  0  0  0  0
 54 55  1  0  0  0  0
 54138  1  0  0  0  0
 54139  1  0  0  0  0
 55 56  1  0  0  0  0
 55140  1  0  0  0  0
 55141  1  0  0  0  0
 56 57  1  0  0  0  0
 56142  1  0  0  0  0
 56143  1  0  0  0  0
 57 58  1  0  0  0  0
 57144  1  0  0  0  0
 57145  1  0  0  0  0
 58146  1  0  0  0  0
 58147  1  0  0  0  0
 58148  1  0  0  0  0
M  END
> <PUBCHEM_COMPOUND_CID>
9832350

> <PUBCHEM_COMPOUND_CANONICALIZED>
1

> <PUBCHEM_CACTVS_COMPLEXITY>
1250

> <PUBCHEM_CACTVS_HBOND_ACCEPTOR>
7

> <PUBCHEM_CACTVS_HBOND_DONOR>
3

> <PUBCHEM_CACTVS_ROTATABLE_BOND>
25

> <PUBCHEM_CACTVS_SUBSKEYS>
AAADcfB8OAAAAAAAAAAAAAAAAAAAAYAAAAA0YIEAAAAAAGCAAAAAGgAACAAADxSwgAMCCAAABgCIAiDSCAAAAAAgAAAACAEAAAgREBIAAQAiQAAFwAAPAAPI6PyPgAAAAAAAAADAAAQAACAAAQAACAAAAA==

> <PUBCHEM_IUPAC_OPENEYE_NAME>
[(2R,3S,4S,5R,6R)-6-[[(3S,8S,9S,10R,13R,14S,17R)-17-[(1R,4R)-4-ethyl-1,5-dimethyl-hexyl]-10,13-dimethyl-2,3,4,7,8,9,11,12,14,15,16,17-dodecahydro-1H-cyclopenta[a]phenanthren-3-yl]oxy]-3,4,5-trihydroxy-tetrahydropyran-2-yl]methyl hexadecanoate

> <PUBCHEM_IUPAC_CAS_NAME>
hexadecanoic acid [(2R,3S,4S,5R,6R)-6-[[(3S,8S,9S,10R,13R,14S,17R)-17-[(2R,5R)-5-ethyl-6-methylheptan-2-yl]-10,13-dimethyl-2,3,4,7,8,9,11,12,14,15,16,17-dodecahydro-1H-cyclopenta[a]phenanthren-3-yl]oxy]-3,4,5-trihydroxy-2-oxanyl]methyl ester

> <PUBCHEM_IUPAC_NAME_MARKUP>
[(2<I>R</I>,3<I>S</I>,4<I>S</I>,5<I>R</I>,6<I>R</I>)-6-[[(3<I>S</I>,8<I>S</I>,9<I>S</I>,10<I>R</I>,13<I>R</I>,14<I>S</I>,17<I>R</I>)-17-[(2<I>R</I>,5<I>R</I>)-5-ethyl-6-methylheptan-2-yl]-10,13-dimethyl-2,3,4,7,8,9,11,12,14,15,16,17-dodecahydro-1<I>H</I>-cyclopenta[a]phenanthren-3-yl]oxy]-3,4,5-trihydroxyoxan-2-yl]methyl hexadecanoate

> <PUBCHEM_IUPAC_NAME>
[(2R,3S,4S,5R,6R)-6-[[(3S,8S,9S,10R,13R,14S,17R)-17-[(2R,5R)-5-ethyl-6-methylheptan-2-yl]-10,13-dimethyl-2,3,4,7,8,9,11,12,14,15,16,17-dodecahydro-1H-cyclopenta[a]phenanthren-3-yl]oxy]-3,4,5-trihydroxyoxan-2-yl]methyl hexadecanoate

> <PUBCHEM_IUPAC_SYSTEMATIC_NAME>
[(2R,3S,4S,5R,6R)-6-[[(3S,8S,9S,10R,13R,14S,17R)-17-[(2R,5R)-5-ethyl-6-methyl-heptan-2-yl]-10,13-dimethyl-2,3,4,7,8,9,11,12,14,15,16,17-dodecahydro-1H-cyclopenta[a]phenanthren-3-yl]oxy]-3,4,5-tris(oxidanyl)oxan-2-yl]methyl hexadecanoate

> <PUBCHEM_IUPAC_TRADITIONAL_NAME>
palmitic acid [(2R,3S,4S,5R,6R)-6-[[(3S,8S,9S,10R,13R,14S,17R)-17-[(1R,4R)-4-ethyl-1,5-dimethyl-hexyl]-10,13-dimethyl-2,3,4,7,8,9,11,12,14,15,16,17-dodecahydro-1H-cyclopenta[a]phenanthren-3-yl]oxy]-3,4,5-trihydroxy-tetrahydropyran-2-yl]methyl ester

> <PUBCHEM_IUPAC_INCHI>
InChI=1S/C51H90O7/c1-8-10-11-12-13-14-15-16-17-18-19-20-21-22-45(52)56-34-44-46(53)47(54)48(55)49(58-44)57-39-29-31-50(6)38(33-39)25-26-40-42-28-27-41(51(42,7)32-30-43(40)50)36(5)23-24-37(9-2)35(3)4/h25,35-37,39-44,46-49,53-55H,8-24,26-34H2,1-7H3/t36-,37-,39+,40+,41-,42+,43+,44-,46-,47+,48-,49-,50+,51-/m1/s1

> <PUBCHEM_IUPAC_INCHIKEY>
JCLYMCVRBRHEHI-TWDDPRSNSA-N

> <PUBCHEM_XLOGP3_AA>
15.1

> <PUBCHEM_EXACT_MASS>
814.668655

> <PUBCHEM_MOLECULAR_FORMULA>
C51H90O7

> <PUBCHEM_MOLECULAR_WEIGHT>
815.3

> <PUBCHEM_OPENEYE_CAN_SMILES>
CCCCCCCCCCCCCCCC(=O)OCC1C(C(C(C(O1)OC2CCC3(C4CCC5(C(C4CC=C3C2)CCC5C(C)CCC(CC)C(C)C)C)C)O)O)O

> <PUBCHEM_OPENEYE_ISO_SMILES>
CCCCCCCCCCCCCCCC(=O)OC[C@@H]1[C@H]([C@@H]([C@H]([C@@H](O1)O[C@H]2CC[C@@]3([C@H]4CC[C@]5([C@H]([C@@H]4CC=C3C2)CC[C@@H]5[C@H](C)CC[C@@H](CC)C(C)C)C)C)O)O)O

> <PUBCHEM_CACTVS_TPSA>
105

> <PUBCHEM_MONOISOTOPIC_WEIGHT>
814.668655

> <PUBCHEM_TOTAL_CHARGE>
0

> <PUBCHEM_HEAVY_ATOM_COUNT>
58

> <PUBCHEM_ATOM_DEF_STEREO_COUNT>
14

> <PUBCHEM_ATOM_UDEF_STEREO_COUNT>
0

> <PUBCHEM_BOND_DEF_STEREO_COUNT>
0

> <PUBCHEM_BOND_UDEF_STEREO_COUNT>
0

> <PUBCHEM_ISOTOPIC_ATOM_COUNT>
0

> <PUBCHEM_COMPONENT_COUNT>
1

> <PUBCHEM_CACTVS_TAUTO_COUNT>
-1

> <PUBCHEM_COORDINATE_TYPE>
1
5
255

> <PUBCHEM_BONDANNOTATIONS>
28  1  5
32  1  5
10  60  5
11  61  6
12  62  6
14  24  5
19  29  6
35  3  6
31  30  6
39  4  5
40  42  5
41  5  6
8  20  5
9  59  6

$$$$
