6440594
  -OEChem-11232017072D

 83 88  0     1  0  0  0  0  0999 V2000
   14.7285   -1.6550    0.0000 O   0  0  0  0  0  0  0  0  0  0  0  0
   14.7285   -4.6550    0.0000 O   0  0  0  0  0  0  0  0  0  0  0  0
   12.9965   -3.6550    0.0000 O   0  0  0  0  0  0  0  0  0  0  0  0
   16.4606   -3.6550    0.0000 O   0  0  0  0  0  0  0  0  0  0  0  0
   17.3266   -2.1550    0.0000 O   0  0  0  0  0  0  0  0  0  0  0  0
   13.8625   -0.1550    0.0000 O   0  0  0  0  0  0  0  0  0  0  0  0
   12.1304   -3.1550    0.0000 O   0  0  0  0  0  0  0  0  0  0  0  0
   10.3984   -2.1550    0.0000 O   0  0  0  0  0  0  0  0  0  0  0  0
   10.3984   -0.1550    0.0000 O   0  0  0  0  0  0  0  0  0  0  0  0
    6.0682   -0.6550    0.0000 O   0  0  0  0  0  0  0  0  0  0  0  0
   11.2644    1.3450    0.0000 O   0  0  0  0  0  0  0  0  0  0  0  0
    6.0682    2.3450    0.0000 O   0  0  0  0  0  0  0  0  0  0  0  0
    4.3198    2.3796    0.0000 O   0  0  0  0  0  0  0  0  0  0  0  0
    2.5381   -0.6792    0.0000 O   0  0  0  0  0  0  0  0  0  0  0  0
   16.4606    4.3450    0.0000 O   0  0  0  0  0  0  0  0  0  0  0  0
   14.7285   -3.6550    0.0000 C   0  0  2  0  0  0  0  0  0  0  0  0
   13.8625   -3.1550    0.0000 C   0  0  2  0  0  0  0  0  0  0  0  0
   15.5945   -3.1550    0.0000 C   0  0  1  0  0  0  0  0  0  0  0  0
   13.8625   -2.1550    0.0000 C   0  0  2  0  0  0  0  0  0  0  0  0
   15.5945   -2.1550    0.0000 C   0  0  1  0  0  0  0  0  0  0  0  0
   12.9965   -1.6550    0.0000 C   0  0  0  0  0  0  0  0  0  0  0  0
   16.4606   -1.6550    0.0000 C   0  0  0  0  0  0  0  0  0  0  0  0
   12.9965   -0.6550    0.0000 C   0  0  0  0  0  0  0  0  0  0  0  0
   12.1304   -2.1550    0.0000 C   0  0  0  0  0  0  0  0  0  0  0  0
   12.1304   -0.1550    0.0000 C   0  0  0  0  0  0  0  0  0  0  0  0
   11.2644   -1.6550    0.0000 C   0  0  0  0  0  0  0  0  0  0  0  0
   11.2644   -0.6550    0.0000 C   0  0  0  0  0  0  0  0  0  0  0  0
   12.1304    0.8450    0.0000 C   0  0  0  0  0  0  0  0  0  0  0  0
    6.9343   -0.1550    0.0000 C   0  0  2  0  0  0  0  0  0  0  0  0
    9.5323   -1.6550    0.0000 C   0  0  0  0  0  0  0  0  0  0  0  0
    7.8003   -0.6550    0.0000 C   0  0  0  0  0  0  0  0  0  0  0  0
    6.9343    0.8450    0.0000 C   0  0  0  0  0  0  0  0  0  0  0  0
   12.9965    1.3450    0.0000 C   0  0  0  0  0  0  0  0  0  0  0  0
    9.5323   -0.6550    0.0000 C   0  0  0  0  0  0  0  0  0  0  0  0
    8.6663   -2.1550    0.0000 C   0  0  0  0  0  0  0  0  0  0  0  0
    8.6663   -0.1550    0.0000 C   0  0  0  0  0  0  0  0  0  0  0  0
    7.8003   -1.6550    0.0000 C   0  0  0  0  0  0  0  0  0  0  0  0
    6.0682    1.3450    0.0000 C   0  0  0  0  0  0  0  0  0  0  0  0
    5.2022    0.8450    0.0000 C   0  0  0  0  0  0  0  0  0  0  0  0
    5.2022   -0.1550    0.0000 C   0  0  0  0  0  0  0  0  0  0  0  0
    4.3083    1.3797    0.0000 C   0  0  0  0  0  0  0  0  0  0  0  0
   12.9965    2.3450    0.0000 C   0  0  0  0  0  0  0  0  0  0  0  0
    4.3083   -0.6897    0.0000 C   0  0  0  0  0  0  0  0  0  0  0  0
    3.4022   -0.1758    0.0000 C   0  0  0  0  0  0  0  0  0  0  0  0
    3.4022    0.8658    0.0000 C   0  0  0  0  0  0  0  0  0  0  0  0
   13.8625    2.8450    0.0000 C   0  0  0  0  0  0  0  0  0  0  0  0
   13.8625    3.8450    0.0000 C   0  0  0  0  0  0  0  0  0  0  0  0
   14.7285    2.3450    0.0000 C   0  0  0  0  0  0  0  0  0  0  0  0
   14.7285    4.3450    0.0000 C   0  0  0  0  0  0  0  0  0  0  0  0
   15.5945    2.8450    0.0000 C   0  0  0  0  0  0  0  0  0  0  0  0
   15.5945    3.8450    0.0000 C   0  0  0  0  0  0  0  0  0  0  0  0
   14.1916   -3.9650    0.0000 H   0  0  0  0  0  0  0  0  0  0  0  0
   13.3255   -2.8450    0.0000 H   0  0  0  0  0  0  0  0  0  0  0  0
   15.5945   -3.7750    0.0000 H   0  0  0  0  0  0  0  0  0  0  0  0
   13.8625   -1.3050    0.0000 H   0  0  0  0  0  0  0  0  0  0  0  0
   15.5945   -1.5350    0.0000 H   0  0  0  0  0  0  0  0  0  0  0  0
   16.8591   -1.1800    0.0000 H   0  0  0  0  0  0  0  0  0  0  0  0
   16.0620   -1.1800    0.0000 H   0  0  0  0  0  0  0  0  0  0  0  0
   15.2654   -4.9650    0.0000 H   0  0  0  0  0  0  0  0  0  0  0  0
   12.9965   -4.2750    0.0000 H   0  0  0  0  0  0  0  0  0  0  0  0
   16.4606   -4.2750    0.0000 H   0  0  0  0  0  0  0  0  0  0  0  0
   17.8635   -1.8450    0.0000 H   0  0  0  0  0  0  0  0  0  0  0  0
   13.8625    0.4650    0.0000 H   0  0  0  0  0  0  0  0  0  0  0  0
   11.5935   -3.4650    0.0000 H   0  0  0  0  0  0  0  0  0  0  0  0
    6.9343   -0.7750    0.0000 H   0  0  0  0  0  0  0  0  0  0  0  0
    7.5449    0.7373    0.0000 H   0  0  0  0  0  0  0  0  0  0  0  0
    7.1463    1.4276    0.0000 H   0  0  0  0  0  0  0  0  0  0  0  0
   10.3984    0.4650    0.0000 H   0  0  0  0  0  0  0  0  0  0  0  0
   13.5334    1.0350    0.0000 H   0  0  0  0  0  0  0  0  0  0  0  0
   10.0693   -0.3450    0.0000 H   0  0  0  0  0  0  0  0  0  0  0  0
    8.6663   -2.7750    0.0000 H   0  0  0  0  0  0  0  0  0  0  0  0
    8.6663    0.4650    0.0000 H   0  0  0  0  0  0  0  0  0  0  0  0
    7.2634   -1.9650    0.0000 H   0  0  0  0  0  0  0  0  0  0  0  0
    4.3154   -1.3096    0.0000 H   0  0  0  0  0  0  0  0  0  0  0  0
   12.4595    2.6550    0.0000 H   0  0  0  0  0  0  0  0  0  0  0  0
    2.8665    1.1779    0.0000 H   0  0  0  0  0  0  0  0  0  0  0  0
    3.7865    2.6958    0.0000 H   0  0  0  0  0  0  0  0  0  0  0  0
   13.3255    4.1550    0.0000 H   0  0  0  0  0  0  0  0  0  0  0  0
   14.7285    1.7250    0.0000 H   0  0  0  0  0  0  0  0  0  0  0  0
    2.0000   -0.3712    0.0000 H   0  0  0  0  0  0  0  0  0  0  0  0
   14.7285    4.9650    0.0000 H   0  0  0  0  0  0  0  0  0  0  0  0
   16.1315    2.5350    0.0000 H   0  0  0  0  0  0  0  0  0  0  0  0
   16.4606    4.9650    0.0000 H   0  0  0  0  0  0  0  0  0  0  0  0
  1 19  1  0  0  0  0
  1 20  1  0  0  0  0
 16  2  1  6  0  0  0
  2 59  1  0  0  0  0
 17  3  1  1  0  0  0
  3 60  1  0  0  0  0
 18  4  1  1  0  0  0
  4 61  1  0  0  0  0
  5 22  1  0  0  0  0
  5 62  1  0  0  0  0
  6 23  1  0  0  0  0
  6 63  1  0  0  0  0
  7 24  1  0  0  0  0
  7 64  1  0  0  0  0
  8 26  1  0  0  0  0
  8 30  1  0  0  0  0
  9 27  1  0  0  0  0
  9 68  1  0  0  0  0
 10 29  1  0  0  0  0
 10 40  1  0  0  0  0
 11 28  2  0  0  0  0
 12 38  2  0  0  0  0
 13 41  1  0  0  0  0
 13 77  1  0  0  0  0
 14 44  1  0  0  0  0
 14 80  1  0  0  0  0
 15 51  1  0  0  0  0
 15 83  1  0  0  0  0
 16 17  1  0  0  0  0
 16 18  1  0  0  0  0
 16 52  1  0  0  0  0
 17 19  1  0  0  0  0
 17 53  1  0  0  0  0
 18 20  1  0  0  0  0
 18 54  1  0  0  0  0
 19 21  1  0  0  0  0
 19 55  1  1  0  0  0
 20 22  1  6  0  0  0
 20 56  1  0  0  0  0
 21 23  2  0  0  0  0
 21 24  1  0  0  0  0
 22 57  1  0  0  0  0
 22 58  1  0  0  0  0
 23 25  1  0  0  0  0
 24 26  2  0  0  0  0
 25 27  2  0  0  0  0
 25 28  1  0  0  0  0
 26 27  1  0  0  0  0
 28 33  1  0  0  0  0
 29 31  1  1  0  0  0
 29 32  1  0  0  0  0
 29 65  1  0  0  0  0
 30 34  2  0  0  0  0
 30 35  1  0  0  0  0
 31 36  2  0  0  0  0
 31 37  1  0  0  0  0
 32 38  1  0  0  0  0
 32 66  1  0  0  0  0
 32 67  1  0  0  0  0
 33 42  2  0  0  0  0
 33 69  1  0  0  0  0
 34 36  1  0  0  0  0
 34 70  1  0  0  0  0
 35 37  2  0  0  0  0
 35 71  1  0  0  0  0
 36 72  1  0  0  0  0
 37 73  1  0  0  0  0
 38 39  1  0  0  0  0
 39 40  1  0  0  0  0
 39 41  2  0  0  0  0
 40 43  2  0  0  0  0
 41 45  1  0  0  0  0
 42 46  1  0  0  0  0
 42 75  1  0  0  0  0
 43 44  1  0  0  0  0
 43 74  1  0  0  0  0
 44 45  2  0  0  0  0
 45 76  1  0  0  0  0
 46 47  2  0  0  0  0
 46 48  1  0  0  0  0
 47 49  1  0  0  0  0
 47 78  1  0  0  0  0
 48 50  2  0  0  0  0
 48 79  1  0  0  0  0
 49 51  2  0  0  0  0
 49 81  1  0  0  0  0
 50 51  1  0  0  0  0
 50 82  1  0  0  0  0
M  END
> <PUBCHEM_COMPOUND_CID>
6440594

> <PUBCHEM_COMPOUND_CANONICALIZED>
1

> <PUBCHEM_CACTVS_COMPLEXITY>
1220

> <PUBCHEM_CACTVS_HBOND_ACCEPTOR>
15

> <PUBCHEM_CACTVS_HBOND_DONOR>
10

> <PUBCHEM_CACTVS_ROTATABLE_BOND>
8

> <PUBCHEM_CACTVS_SUBSKEYS>
AAADcfB8PAAAAAAAAAAAAAAAAAAAAAAAAAA0aMGCAAAAAACRVAAAGgAACAAADBSgmAIwBoAABgCIAqBSAAACCAAkIAAIiAEGiMgNNzaGNRqCeWOl4BULuYfK7PzOIQADCAAIQABCAAYQABCAAAAAAAAAAA==

> <PUBCHEM_IUPAC_OPENEYE_NAME>
(2S)-5,7-dihydroxy-2-[4-[2,4,6-trihydroxy-3-[(E)-3-(4-hydroxyphenyl)prop-2-enoyl]-5-[(2S,3R,4R,5S,6R)-3,4,5-trihydroxy-6-(hydroxymethyl)tetrahydropyran-2-yl]phenoxy]phenyl]chroman-4-one

> <PUBCHEM_IUPAC_CAS_NAME>
(2S)-5,7-dihydroxy-2-[4-[2,4,6-trihydroxy-3-[(E)-3-(4-hydroxyphenyl)-1-oxoprop-2-enyl]-5-[(2S,3R,4R,5S,6R)-3,4,5-trihydroxy-6-(hydroxymethyl)-2-oxanyl]phenoxy]phenyl]-3,4-dihydro-2H-1-benzopyran-4-one

> <PUBCHEM_IUPAC_NAME_MARKUP>
(2<I>S</I>)-5,7-dihydroxy-2-[4-[2,4,6-trihydroxy-3-[(<I>E</I>)-3-(4-hydroxyphenyl)prop-2-enoyl]-5-[(2<I>S</I>,3<I>R</I>,4<I>R</I>,5<I>S</I>,6<I>R</I>)-3,4,5-trihydroxy-6-(hydroxymethyl)oxan-2-yl]phenoxy]phenyl]-2,3-dihydrochromen-4-one

> <PUBCHEM_IUPAC_NAME>
(2S)-5,7-dihydroxy-2-[4-[2,4,6-trihydroxy-3-[(E)-3-(4-hydroxyphenyl)prop-2-enoyl]-5-[(2S,3R,4R,5S,6R)-3,4,5-trihydroxy-6-(hydroxymethyl)oxan-2-yl]phenoxy]phenyl]-2,3-dihydrochromen-4-one

> <PUBCHEM_IUPAC_SYSTEMATIC_NAME>
(2S)-2-[4-[3-[(2S,3R,4R,5S,6R)-6-(hydroxymethyl)-3,4,5-tris(oxidanyl)oxan-2-yl]-5-[(E)-3-(4-hydroxyphenyl)prop-2-enoyl]-2,4,6-tris(oxidanyl)phenoxy]phenyl]-5,7-bis(oxidanyl)-2,3-dihydrochromen-4-one

> <PUBCHEM_IUPAC_TRADITIONAL_NAME>
(2S)-5,7-dihydroxy-2-[4-[2,4,6-trihydroxy-3-[(E)-3-(4-hydroxyphenyl)acryloyl]-5-[(2S,3R,4R,5S,6R)-3,4,5-trihydroxy-6-methylol-tetrahydropyran-2-yl]phenoxy]phenyl]chroman-4-one

> <PUBCHEM_IUPAC_INCHI>
InChI=1S/C36H32O15/c37-14-25-29(43)33(47)34(48)35(51-25)28-30(44)27(20(40)10-3-15-1-6-17(38)7-2-15)31(45)36(32(28)46)49-19-8-4-16(5-9-19)23-13-22(42)26-21(41)11-18(39)12-24(26)50-23/h1-12,23,25,29,33-35,37-39,41,43-48H,13-14H2/b10-3+/t23-,25+,29+,33-,34+,35-/m0/s1

> <PUBCHEM_IUPAC_INCHIKEY>
QAYDNOZSJGIPSH-UJLWYIQBSA-N

> <PUBCHEM_XLOGP3_AA>
2.7

> <PUBCHEM_EXACT_MASS>
704.17412

> <PUBCHEM_MOLECULAR_FORMULA>
C36H32O15

> <PUBCHEM_MOLECULAR_WEIGHT>
704.6

> <PUBCHEM_OPENEYE_CAN_SMILES>
C1C(OC2=CC(=CC(=C2C1=O)O)O)C3=CC=C(C=C3)OC4=C(C(=C(C(=C4O)C(=O)C=CC5=CC=C(C=C5)O)O)C6C(C(C(C(O6)CO)O)O)O)O

> <PUBCHEM_OPENEYE_ISO_SMILES>
C1[C@H](OC2=CC(=CC(=C2C1=O)O)O)C3=CC=C(C=C3)OC4=C(C(=C(C(=C4O)C(=O)/C=C/C5=CC=C(C=C5)O)O)[C@H]6[C@@H]([C@H]([C@@H]([C@H](O6)CO)O)O)O)O

> <PUBCHEM_CACTVS_TPSA>
264

> <PUBCHEM_MONOISOTOPIC_WEIGHT>
704.17412

> <PUBCHEM_TOTAL_CHARGE>
0

> <PUBCHEM_HEAVY_ATOM_COUNT>
51

> <PUBCHEM_ATOM_DEF_STEREO_COUNT>
6

> <PUBCHEM_ATOM_UDEF_STEREO_COUNT>
0

> <PUBCHEM_BOND_DEF_STEREO_COUNT>
1

> <PUBCHEM_BOND_UDEF_STEREO_COUNT>
0

> <PUBCHEM_ISOTOPIC_ATOM_COUNT>
0

> <PUBCHEM_COMPONENT_COUNT>
1

> <PUBCHEM_CACTVS_TAUTO_COUNT>
-1

> <PUBCHEM_COORDINATE_TYPE>
1
5
255

> <PUBCHEM_BONDANNOTATIONS>
19  55  5
16  2  6
20  22  6
21  23  8
21  24  8
23  25  8
24  26  8
25  27  8
26  27  8
29  31  5
17  3  5
30  34  8
30  35  8
31  36  8
31  37  8
34  36  8
35  37  8
39  40  8
39  41  8
18  4  5
40  43  8
41  45  8
43  44  8
44  45  8
46  47  8
46  48  8
47  49  8
48  50  8
49  51  8
50  51  8

$$$$
