14900
  -OEChem-09122010102D

 61 60  0     1  0  0  0  0  0999 V2000
   15.8564    0.0950    0.0000 O   0  0  0  0  0  0  0  0  0  0  0  0
   14.9904   -1.4050    0.0000 O   0  0  0  0  0  0  0  0  0  0  0  0
   17.5885    1.0950    0.0000 O   0  0  0  0  0  0  0  0  0  0  0  0
   19.3205    0.0950    0.0000 O   0  0  0  0  0  0  0  0  0  0  0  0
    8.9282    0.0950    0.0000 C   0  0  0  0  0  0  0  0  0  0  0  0
    8.0622   -0.4050    0.0000 C   0  0  0  0  0  0  0  0  0  0  0  0
    9.7942   -0.4050    0.0000 C   0  0  0  0  0  0  0  0  0  0  0  0
    7.1962    0.0950    0.0000 C   0  0  0  0  0  0  0  0  0  0  0  0
    6.3301   -0.4050    0.0000 C   0  0  0  0  0  0  0  0  0  0  0  0
   10.6603    0.0950    0.0000 C   0  0  0  0  0  0  0  0  0  0  0  0
    5.4641    0.0950    0.0000 C   0  0  0  0  0  0  0  0  0  0  0  0
   11.5263   -0.4050    0.0000 C   0  0  0  0  0  0  0  0  0  0  0  0
    4.5981   -0.4050    0.0000 C   0  0  0  0  0  0  0  0  0  0  0  0
   12.3923    0.0950    0.0000 C   0  0  0  0  0  0  0  0  0  0  0  0
    3.7320    0.0950    0.0000 C   0  0  0  0  0  0  0  0  0  0  0  0
   13.2583   -0.4050    0.0000 C   0  0  0  0  0  0  0  0  0  0  0  0
    2.8660   -0.4050    0.0000 C   0  0  0  0  0  0  0  0  0  0  0  0
   14.1244    0.0950    0.0000 C   0  0  0  0  0  0  0  0  0  0  0  0
    2.0000    0.0950    0.0000 C   0  0  0  0  0  0  0  0  0  0  0  0
   14.9904   -0.4050    0.0000 C   0  0  0  0  0  0  0  0  0  0  0  0
   16.7224   -0.4050    0.0000 C   0  0  0  0  0  0  0  0  0  0  0  0
   17.5885    0.0950    0.0000 C   0  0  3  0  0  0  0  0  0  0  0  0
   18.4545   -0.4050    0.0000 C   0  0  0  0  0  0  0  0  0  0  0  0
    9.3267    0.5699    0.0000 H   0  0  0  0  0  0  0  0  0  0  0  0
    8.5297    0.5699    0.0000 H   0  0  0  0  0  0  0  0  0  0  0  0
    7.6636   -0.8799    0.0000 H   0  0  0  0  0  0  0  0  0  0  0  0
    8.4607   -0.8799    0.0000 H   0  0  0  0  0  0  0  0  0  0  0  0
    9.3957   -0.8799    0.0000 H   0  0  0  0  0  0  0  0  0  0  0  0
   10.1928   -0.8799    0.0000 H   0  0  0  0  0  0  0  0  0  0  0  0
    7.5947    0.5699    0.0000 H   0  0  0  0  0  0  0  0  0  0  0  0
    6.7976    0.5699    0.0000 H   0  0  0  0  0  0  0  0  0  0  0  0
    5.9316   -0.8799    0.0000 H   0  0  0  0  0  0  0  0  0  0  0  0
    6.7287   -0.8799    0.0000 H   0  0  0  0  0  0  0  0  0  0  0  0
   11.0588    0.5699    0.0000 H   0  0  0  0  0  0  0  0  0  0  0  0
   10.2617    0.5699    0.0000 H   0  0  0  0  0  0  0  0  0  0  0  0
    5.8626    0.5699    0.0000 H   0  0  0  0  0  0  0  0  0  0  0  0
    5.0656    0.5699    0.0000 H   0  0  0  0  0  0  0  0  0  0  0  0
   11.1278   -0.8799    0.0000 H   0  0  0  0  0  0  0  0  0  0  0  0
   11.9248   -0.8799    0.0000 H   0  0  0  0  0  0  0  0  0  0  0  0
    4.1996   -0.8799    0.0000 H   0  0  0  0  0  0  0  0  0  0  0  0
    4.9966   -0.8799    0.0000 H   0  0  0  0  0  0  0  0  0  0  0  0
   12.7908    0.5699    0.0000 H   0  0  0  0  0  0  0  0  0  0  0  0
   11.9938    0.5699    0.0000 H   0  0  0  0  0  0  0  0  0  0  0  0
    4.1306    0.5699    0.0000 H   0  0  0  0  0  0  0  0  0  0  0  0
    3.3335    0.5699    0.0000 H   0  0  0  0  0  0  0  0  0  0  0  0
   12.8598   -0.8799    0.0000 H   0  0  0  0  0  0  0  0  0  0  0  0
   13.6569   -0.8799    0.0000 H   0  0  0  0  0  0  0  0  0  0  0  0
    2.4675   -0.8799    0.0000 H   0  0  0  0  0  0  0  0  0  0  0  0
    3.2646   -0.8799    0.0000 H   0  0  0  0  0  0  0  0  0  0  0  0
   14.5229    0.5699    0.0000 H   0  0  0  0  0  0  0  0  0  0  0  0
   13.7258    0.5699    0.0000 H   0  0  0  0  0  0  0  0  0  0  0  0
    2.3100    0.6319    0.0000 H   0  0  0  0  0  0  0  0  0  0  0  0
    1.4631    0.4050    0.0000 H   0  0  0  0  0  0  0  0  0  0  0  0
    1.6900   -0.4419    0.0000 H   0  0  0  0  0  0  0  0  0  0  0  0
   16.3239   -0.8799    0.0000 H   0  0  0  0  0  0  0  0  0  0  0  0
   17.1210   -0.8799    0.0000 H   0  0  0  0  0  0  0  0  0  0  0  0
   18.1254    0.4050    0.0000 H   0  0  0  0  0  0  0  0  0  0  0  0
   18.0560   -0.8799    0.0000 H   0  0  0  0  0  0  0  0  0  0  0  0
   18.8530   -0.8799    0.0000 H   0  0  0  0  0  0  0  0  0  0  0  0
   18.1254    1.4050    0.0000 H   0  0  0  0  0  0  0  0  0  0  0  0
   19.8574   -0.2150    0.0000 H   0  0  0  0  0  0  0  0  0  0  0  0
  1 20  1  0  0  0  0
  1 21  1  0  0  0  0
  2 20  2  0  0  0  0
  3 22  1  0  0  0  0
  3 60  1  0  0  0  0
  4 23  1  0  0  0  0
  4 61  1  0  0  0  0
  5  6  1  0  0  0  0
  5  7  1  0  0  0  0
  5 24  1  0  0  0  0
  5 25  1  0  0  0  0
  6  8  1  0  0  0  0
  6 26  1  0  0  0  0
  6 27  1  0  0  0  0
  7 10  1  0  0  0  0
  7 28  1  0  0  0  0
  7 29  1  0  0  0  0
  8  9  1  0  0  0  0
  8 30  1  0  0  0  0
  8 31  1  0  0  0  0
  9 11  1  0  0  0  0
  9 32  1  0  0  0  0
  9 33  1  0  0  0  0
 10 12  1  0  0  0  0
 10 34  1  0  0  0  0
 10 35  1  0  0  0  0
 11 13  1  0  0  0  0
 11 36  1  0  0  0  0
 11 37  1  0  0  0  0
 12 14  1  0  0  0  0
 12 38  1  0  0  0  0
 12 39  1  0  0  0  0
 13 15  1  0  0  0  0
 13 40  1  0  0  0  0
 13 41  1  0  0  0  0
 14 16  1  0  0  0  0
 14 42  1  0  0  0  0
 14 43  1  0  0  0  0
 15 17  1  0  0  0  0
 15 44  1  0  0  0  0
 15 45  1  0  0  0  0
 16 18  1  0  0  0  0
 16 46  1  0  0  0  0
 16 47  1  0  0  0  0
 17 19  1  0  0  0  0
 17 48  1  0  0  0  0
 17 49  1  0  0  0  0
 18 20  1  0  0  0  0
 18 50  1  0  0  0  0
 18 51  1  0  0  0  0
 19 52  1  0  0  0  0
 19 53  1  0  0  0  0
 19 54  1  0  0  0  0
 21 22  1  0  0  0  0
 21 55  1  0  0  0  0
 21 56  1  0  0  0  0
 22 23  1  0  0  0  0
 22 57  1  0  0  0  0
 23 58  1  0  0  0  0
 23 59  1  0  0  0  0
M  END
> <PUBCHEM_COMPOUND_CID>
14900

> <PUBCHEM_COMPOUND_CANONICALIZED>
1

> <PUBCHEM_CACTVS_COMPLEXITY>
256

> <PUBCHEM_CACTVS_HBOND_ACCEPTOR>
4

> <PUBCHEM_CACTVS_HBOND_DONOR>
2

> <PUBCHEM_CACTVS_ROTATABLE_BOND>
18

> <PUBCHEM_CACTVS_SUBSKEYS>
AAADcfB4OAAAAAAAAAAAAAAAAAAAAAAAAAAAAAAAAAAAAAAAAAAAGgAACAAACBSggAICCAAABgAIAACQCAAAAAAAAAAAAAEAAAABEBIAAAACQAAFAAADAAGIyKCAAAAAAAAAAAAAAAAAAAAAAAAAAAAAAA==

> <PUBCHEM_IUPAC_OPENEYE_NAME>
2,3-dihydroxypropyl hexadecanoate

> <PUBCHEM_IUPAC_CAS_NAME>
hexadecanoic acid 2,3-dihydroxypropyl ester

> <PUBCHEM_IUPAC_NAME_MARKUP>
2,3-dihydroxypropyl hexadecanoate

> <PUBCHEM_IUPAC_NAME>
2,3-dihydroxypropyl hexadecanoate

> <PUBCHEM_IUPAC_SYSTEMATIC_NAME>
2,3-bis(oxidanyl)propyl hexadecanoate

> <PUBCHEM_IUPAC_TRADITIONAL_NAME>
palmitic acid glyceryl ester

> <PUBCHEM_IUPAC_INCHI>
InChI=1S/C19H38O4/c1-2-3-4-5-6-7-8-9-10-11-12-13-14-15-19(22)23-17-18(21)16-20/h18,20-21H,2-17H2,1H3

> <PUBCHEM_IUPAC_INCHIKEY>
QHZLMUACJMDIAE-UHFFFAOYSA-N

> <PUBCHEM_XLOGP3>
6.3

> <PUBCHEM_EXACT_MASS>
330.27701

> <PUBCHEM_MOLECULAR_FORMULA>
C19H38O4

> <PUBCHEM_MOLECULAR_WEIGHT>
330.5

> <PUBCHEM_OPENEYE_CAN_SMILES>
CCCCCCCCCCCCCCCC(=O)OCC(CO)O

> <PUBCHEM_OPENEYE_ISO_SMILES>
CCCCCCCCCCCCCCCC(=O)OCC(CO)O

> <PUBCHEM_CACTVS_TPSA>
66.8

> <PUBCHEM_MONOISOTOPIC_WEIGHT>
330.27701

> <PUBCHEM_TOTAL_CHARGE>
0

> <PUBCHEM_HEAVY_ATOM_COUNT>
23

> <PUBCHEM_ATOM_DEF_STEREO_COUNT>
0

> <PUBCHEM_ATOM_UDEF_STEREO_COUNT>
1

> <PUBCHEM_BOND_DEF_STEREO_COUNT>
0

> <PUBCHEM_BOND_UDEF_STEREO_COUNT>
0

> <PUBCHEM_ISOTOPIC_ATOM_COUNT>
0

> <PUBCHEM_COMPONENT_COUNT>
1

> <PUBCHEM_CACTVS_TAUTO_COUNT>
-1

> <PUBCHEM_COORDINATE_TYPE>
1
5
255

> <PUBCHEM_BONDANNOTATIONS>
22  3  3

$$$$
