182237
  -OEChem-09302002272D

 97 98  0     1  0  0  0  0  0999 V2000
   22.7846   -1.6230    0.0000 O   0  0  0  0  0  0  0  0  0  0  0  0
   21.0526    0.3770    0.0000 C   0  0  0  0  0  0  0  0  0  0  0  0
   21.9186   -0.1230    0.0000 C   0  0  0  0  0  0  0  0  0  0  0  0
    3.7320    1.3770    0.0000 C   0  0  0  0  0  0  0  0  0  0  0  0
   21.9186   -1.1230    0.0000 C   0  0  3  0  0  0  0  0  0  0  0  0
   20.1865   -0.1230    0.0000 C   0  0  0  0  0  0  0  0  0  0  0  0
    2.8660    1.8770    0.0000 C   0  0  0  0  0  0  0  0  0  0  0  0
   21.0526   -1.6230    0.0000 C   0  0  0  0  0  0  0  0  0  0  0  0
   20.1865   -1.1230    0.0000 C   0  0  0  0  0  0  0  0  0  0  0  0
    2.0000    1.3770    0.0000 C   0  0  0  0  0  0  0  0  0  0  0  0
    3.7320    0.3770    0.0000 C   0  0  0  0  0  0  0  0  0  0  0  0
   21.5526    1.2430    0.0000 C   0  0  0  0  0  0  0  0  0  0  0  0
   20.5526    1.2430    0.0000 C   0  0  0  0  0  0  0  0  0  0  0  0
    2.0000    0.3770    0.0000 C   0  0  0  0  0  0  0  0  0  0  0  0
    2.8660   -0.1230    0.0000 C   0  0  0  0  0  0  0  0  0  0  0  0
    4.2320    2.2430    0.0000 C   0  0  0  0  0  0  0  0  0  0  0  0
    4.7320    1.3770    0.0000 C   0  0  0  0  0  0  0  0  0  0  0  0
   19.3205    0.3770    0.0000 C   0  0  0  0  0  0  0  0  0  0  0  0
   19.3205   -1.6230    0.0000 C   0  0  0  0  0  0  0  0  0  0  0  0
    4.5981   -0.1230    0.0000 C   0  0  0  0  0  0  0  0  0  0  0  0
    2.8660   -1.1230    0.0000 C   0  0  0  0  0  0  0  0  0  0  0  0
   18.4545   -0.1230    0.0000 C   0  0  0  0  0  0  0  0  0  0  0  0
    5.4641    0.3770    0.0000 C   0  0  0  0  0  0  0  0  0  0  0  0
   17.5885    0.3770    0.0000 C   0  0  0  0  0  0  0  0  0  0  0  0
    6.3301   -0.1230    0.0000 C   0  0  0  0  0  0  0  0  0  0  0  0
   17.5885    1.3770    0.0000 C   0  0  0  0  0  0  0  0  0  0  0  0
   16.7224   -0.1230    0.0000 C   0  0  0  0  0  0  0  0  0  0  0  0
    6.3301   -1.1230    0.0000 C   0  0  0  0  0  0  0  0  0  0  0  0
    7.1962    0.3770    0.0000 C   0  0  0  0  0  0  0  0  0  0  0  0
   15.8564    0.3770    0.0000 C   0  0  0  0  0  0  0  0  0  0  0  0
    8.0622   -0.1230    0.0000 C   0  0  0  0  0  0  0  0  0  0  0  0
   14.9904   -0.1230    0.0000 C   0  0  0  0  0  0  0  0  0  0  0  0
    8.9282    0.3770    0.0000 C   0  0  0  0  0  0  0  0  0  0  0  0
   14.1244    0.3770    0.0000 C   0  0  0  0  0  0  0  0  0  0  0  0
    9.7942   -0.1230    0.0000 C   0  0  0  0  0  0  0  0  0  0  0  0
   14.1244    1.3770    0.0000 C   0  0  0  0  0  0  0  0  0  0  0  0
   13.2583   -0.1230    0.0000 C   0  0  0  0  0  0  0  0  0  0  0  0
   10.6603    0.3770    0.0000 C   0  0  0  0  0  0  0  0  0  0  0  0
    9.7942   -1.1230    0.0000 C   0  0  0  0  0  0  0  0  0  0  0  0
   12.3923    0.3770    0.0000 C   0  0  0  0  0  0  0  0  0  0  0  0
   11.5263   -0.1230    0.0000 C   0  0  0  0  0  0  0  0  0  0  0  0
   22.5292   -0.2307    0.0000 H   0  0  0  0  0  0  0  0  0  0  0  0
   22.1306    0.4596    0.0000 H   0  0  0  0  0  0  0  0  0  0  0  0
   22.4555   -0.8130    0.0000 H   0  0  0  0  0  0  0  0  0  0  0  0
    3.2646    2.3519    0.0000 H   0  0  0  0  0  0  0  0  0  0  0  0
    2.4675    2.3519    0.0000 H   0  0  0  0  0  0  0  0  0  0  0  0
   20.6540   -2.0980    0.0000 H   0  0  0  0  0  0  0  0  0  0  0  0
   21.4511   -2.0980    0.0000 H   0  0  0  0  0  0  0  0  0  0  0  0
    1.7880    1.9596    0.0000 H   0  0  0  0  0  0  0  0  0  0  0  0
    1.3894    1.2693    0.0000 H   0  0  0  0  0  0  0  0  0  0  0  0
   22.0895    0.9330    0.0000 H   0  0  0  0  0  0  0  0  0  0  0  0
   21.8626    1.7800    0.0000 H   0  0  0  0  0  0  0  0  0  0  0  0
   21.0156    1.5530    0.0000 H   0  0  0  0  0  0  0  0  0  0  0  0
   21.0895    1.5530    0.0000 H   0  0  0  0  0  0  0  0  0  0  0  0
   20.2426    1.7800    0.0000 H   0  0  0  0  0  0  0  0  0  0  0  0
   20.0156    0.9330    0.0000 H   0  0  0  0  0  0  0  0  0  0  0  0
    1.3894    0.4846    0.0000 H   0  0  0  0  0  0  0  0  0  0  0  0
    1.7880   -0.2056    0.0000 H   0  0  0  0  0  0  0  0  0  0  0  0
    4.7690    1.9330    0.0000 H   0  0  0  0  0  0  0  0  0  0  0  0
    4.5420    2.7800    0.0000 H   0  0  0  0  0  0  0  0  0  0  0  0
    3.6951    2.5530    0.0000 H   0  0  0  0  0  0  0  0  0  0  0  0
    4.7320    0.7570    0.0000 H   0  0  0  0  0  0  0  0  0  0  0  0
    5.3520    1.3770    0.0000 H   0  0  0  0  0  0  0  0  0  0  0  0
    4.7320    1.9970    0.0000 H   0  0  0  0  0  0  0  0  0  0  0  0
   19.3205    0.9970    0.0000 H   0  0  0  0  0  0  0  0  0  0  0  0
   19.0105   -1.0861    0.0000 H   0  0  0  0  0  0  0  0  0  0  0  0
   18.7836   -1.9330    0.0000 H   0  0  0  0  0  0  0  0  0  0  0  0
   19.6305   -2.1599    0.0000 H   0  0  0  0  0  0  0  0  0  0  0  0
    4.5981   -0.7430    0.0000 H   0  0  0  0  0  0  0  0  0  0  0  0
    2.2460   -1.1230    0.0000 H   0  0  0  0  0  0  0  0  0  0  0  0
    2.8660   -1.7430    0.0000 H   0  0  0  0  0  0  0  0  0  0  0  0
    3.4860   -1.1230    0.0000 H   0  0  0  0  0  0  0  0  0  0  0  0
   22.7846   -2.2430    0.0000 H   0  0  0  0  0  0  0  0  0  0  0  0
   18.4545   -0.7430    0.0000 H   0  0  0  0  0  0  0  0  0  0  0  0
    5.4641    0.9970    0.0000 H   0  0  0  0  0  0  0  0  0  0  0  0
   18.2085    1.3770    0.0000 H   0  0  0  0  0  0  0  0  0  0  0  0
   17.5885    1.9970    0.0000 H   0  0  0  0  0  0  0  0  0  0  0  0
   16.9685    1.3770    0.0000 H   0  0  0  0  0  0  0  0  0  0  0  0
   16.7224   -0.7430    0.0000 H   0  0  0  0  0  0  0  0  0  0  0  0
    5.7101   -1.1230    0.0000 H   0  0  0  0  0  0  0  0  0  0  0  0
    6.3301   -1.7430    0.0000 H   0  0  0  0  0  0  0  0  0  0  0  0
    6.9501   -1.1230    0.0000 H   0  0  0  0  0  0  0  0  0  0  0  0
    7.1962    0.9970    0.0000 H   0  0  0  0  0  0  0  0  0  0  0  0
   15.8564    0.9970    0.0000 H   0  0  0  0  0  0  0  0  0  0  0  0
    8.0622   -0.7430    0.0000 H   0  0  0  0  0  0  0  0  0  0  0  0
   14.9904   -0.7430    0.0000 H   0  0  0  0  0  0  0  0  0  0  0  0
    8.9282    0.9970    0.0000 H   0  0  0  0  0  0  0  0  0  0  0  0
   14.7444    1.3770    0.0000 H   0  0  0  0  0  0  0  0  0  0  0  0
   14.1244    1.9970    0.0000 H   0  0  0  0  0  0  0  0  0  0  0  0
   13.5044    1.3770    0.0000 H   0  0  0  0  0  0  0  0  0  0  0  0
   13.2583   -0.7430    0.0000 H   0  0  0  0  0  0  0  0  0  0  0  0
   10.6603    0.9970    0.0000 H   0  0  0  0  0  0  0  0  0  0  0  0
    9.1742   -1.1230    0.0000 H   0  0  0  0  0  0  0  0  0  0  0  0
    9.7942   -1.7430    0.0000 H   0  0  0  0  0  0  0  0  0  0  0  0
   10.4142   -1.1230    0.0000 H   0  0  0  0  0  0  0  0  0  0  0  0
   12.3923    0.9970    0.0000 H   0  0  0  0  0  0  0  0  0  0  0  0
   11.5263   -0.7430    0.0000 H   0  0  0  0  0  0  0  0  0  0  0  0
  1  5  1  0  0  0  0
  1 73  1  0  0  0  0
  2  3  1  0  0  0  0
  2  6  1  0  0  0  0
  2 12  1  0  0  0  0
  2 13  1  0  0  0  0
  3  5  1  0  0  0  0
  3 42  1  0  0  0  0
  3 43  1  0  0  0  0
  4  7  1  0  0  0  0
  4 11  1  0  0  0  0
  4 16  1  0  0  0  0
  4 17  1  0  0  0  0
  5  8  1  0  0  0  0
  5 44  1  0  0  0  0
  6  9  2  0  0  0  0
  6 18  1  0  0  0  0
  7 10  1  0  0  0  0
  7 45  1  0  0  0  0
  7 46  1  0  0  0  0
  8  9  1  0  0  0  0
  8 47  1  0  0  0  0
  8 48  1  0  0  0  0
  9 19  1  0  0  0  0
 10 14  1  0  0  0  0
 10 49  1  0  0  0  0
 10 50  1  0  0  0  0
 11 15  2  0  0  0  0
 11 20  1  0  0  0  0
 12 51  1  0  0  0  0
 12 52  1  0  0  0  0
 12 53  1  0  0  0  0
 13 54  1  0  0  0  0
 13 55  1  0  0  0  0
 13 56  1  0  0  0  0
 14 15  1  0  0  0  0
 14 57  1  0  0  0  0
 14 58  1  0  0  0  0
 15 21  1  0  0  0  0
 16 59  1  0  0  0  0
 16 60  1  0  0  0  0
 16 61  1  0  0  0  0
 17 62  1  0  0  0  0
 17 63  1  0  0  0  0
 17 64  1  0  0  0  0
 18 22  2  3  0  0  0
 18 65  1  0  0  0  0
 19 66  1  0  0  0  0
 19 67  1  0  0  0  0
 19 68  1  0  0  0  0
 20 23  2  3  0  0  0
 20 69  1  0  0  0  0
 21 70  1  0  0  0  0
 21 71  1  0  0  0  0
 21 72  1  0  0  0  0
 22 24  1  0  0  0  0
 22 74  1  0  0  0  0
 23 25  1  0  0  0  0
 23 75  1  0  0  0  0
 24 26  1  0  0  0  0
 24 27  2  3  0  0  0
 25 28  1  0  0  0  0
 25 29  2  3  0  0  0
 26 76  1  0  0  0  0
 26 77  1  0  0  0  0
 26 78  1  0  0  0  0
 27 30  1  0  0  0  0
 27 79  1  0  0  0  0
 28 80  1  0  0  0  0
 28 81  1  0  0  0  0
 28 82  1  0  0  0  0
 29 31  1  0  0  0  0
 29 83  1  0  0  0  0
 30 32  2  3  0  0  0
 30 84  1  0  0  0  0
 31 33  2  3  0  0  0
 31 85  1  0  0  0  0
 32 34  1  0  0  0  0
 32 86  1  0  0  0  0
 33 35  1  0  0  0  0
 33 87  1  0  0  0  0
 34 36  1  0  0  0  0
 34 37  2  3  0  0  0
 35 38  2  3  0  0  0
 35 39  1  0  0  0  0
 36 88  1  0  0  0  0
 36 89  1  0  0  0  0
 36 90  1  0  0  0  0
 37 40  1  0  0  0  0
 37 91  1  0  0  0  0
 38 41  1  0  0  0  0
 38 92  1  0  0  0  0
 39 93  1  0  0  0  0
 39 94  1  0  0  0  0
 39 95  1  0  0  0  0
 40 41  2  3  0  0  0
 40 96  1  0  0  0  0
 41 97  1  0  0  0  0
M  END
> <PUBCHEM_COMPOUND_CID>
182237

> <PUBCHEM_COMPOUND_CANONICALIZED>
1

> <PUBCHEM_CACTVS_COMPLEXITY>
1250

> <PUBCHEM_CACTVS_HBOND_ACCEPTOR>
1

> <PUBCHEM_CACTVS_HBOND_DONOR>
1

> <PUBCHEM_CACTVS_ROTATABLE_BOND>
10

> <PUBCHEM_CACTVS_SUBSKEYS>
AAADcfB8IAAAAAAAAAAAAAAAAAAAAAAAAAAgQAAAAAAAAAAAAAAAGgAACAAADhSggAICAAAAAgCAAiBCAAAAAAAgAAAICAAAAAgIEAIAAQAAQAAEwAAIgAOAgMAPAAAAAAAAAAAAAAAAAAAAAAAAAAAAAA==

> <PUBCHEM_IUPAC_OPENEYE_NAME>
3,5,5-trimethyl-4-[3,7,12,16-tetramethyl-18-(2,6,6-trimethylcyclohexen-1-yl)octadeca-1,3,5,7,9,11,13,15,17-nonaenyl]cyclohex-3-en-1-ol

> <PUBCHEM_IUPAC_CAS_NAME>
3,5,5-trimethyl-4-[3,7,12,16-tetramethyl-18-(2,6,6-trimethyl-1-cyclohexenyl)octadeca-1,3,5,7,9,11,13,15,17-nonaenyl]-1-cyclohex-3-enol

> <PUBCHEM_IUPAC_NAME_MARKUP>
3,5,5-trimethyl-4-[3,7,12,16-tetramethyl-18-(2,6,6-trimethylcyclohexen-1-yl)octadeca-1,3,5,7,9,11,13,15,17-nonaenyl]cyclohex-3-en-1-ol

> <PUBCHEM_IUPAC_NAME>
3,5,5-trimethyl-4-[3,7,12,16-tetramethyl-18-(2,6,6-trimethylcyclohexen-1-yl)octadeca-1,3,5,7,9,11,13,15,17-nonaenyl]cyclohex-3-en-1-ol

> <PUBCHEM_IUPAC_SYSTEMATIC_NAME>
3,5,5-trimethyl-4-[3,7,12,16-tetramethyl-18-(2,6,6-trimethylcyclohexen-1-yl)octadeca-1,3,5,7,9,11,13,15,17-nonaenyl]cyclohex-3-en-1-ol

> <PUBCHEM_IUPAC_TRADITIONAL_NAME>
3,5,5-trimethyl-4-[3,7,12,16-tetramethyl-18-(2,6,6-trimethylcyclohexen-1-yl)octadeca-1,3,5,7,9,11,13,15,17-nonaenyl]cyclohex-3-en-1-ol

> <PUBCHEM_IUPAC_INCHI>
InChI=1S/C40H56O/c1-30(18-13-20-32(3)23-25-37-34(5)22-15-27-39(37,7)8)16-11-12-17-31(2)19-14-21-33(4)24-26-38-35(6)28-36(41)29-40(38,9)10/h11-14,16-21,23-26,36,41H,15,22,27-29H2,1-10H3

> <PUBCHEM_IUPAC_INCHIKEY>
DMASLKHVQRHNES-UHFFFAOYSA-N

> <PUBCHEM_XLOGP3_AA>
12.3

> <PUBCHEM_EXACT_MASS>
552.433116

> <PUBCHEM_MOLECULAR_FORMULA>
C40H56O

> <PUBCHEM_MOLECULAR_WEIGHT>
552.9

> <PUBCHEM_OPENEYE_CAN_SMILES>
CC1=C(C(CCC1)(C)C)C=CC(=CC=CC(=CC=CC=C(C)C=CC=C(C)C=CC2=C(CC(CC2(C)C)O)C)C)C

> <PUBCHEM_OPENEYE_ISO_SMILES>
CC1=C(C(CCC1)(C)C)C=CC(=CC=CC(=CC=CC=C(C)C=CC=C(C)C=CC2=C(CC(CC2(C)C)O)C)C)C

> <PUBCHEM_CACTVS_TPSA>
20.2

> <PUBCHEM_MONOISOTOPIC_WEIGHT>
552.433116

> <PUBCHEM_TOTAL_CHARGE>
0

> <PUBCHEM_HEAVY_ATOM_COUNT>
41

> <PUBCHEM_ATOM_DEF_STEREO_COUNT>
0

> <PUBCHEM_ATOM_UDEF_STEREO_COUNT>
1

> <PUBCHEM_BOND_DEF_STEREO_COUNT>
0

> <PUBCHEM_BOND_UDEF_STEREO_COUNT>
9

> <PUBCHEM_ISOTOPIC_ATOM_COUNT>
0

> <PUBCHEM_COMPONENT_COUNT>
1

> <PUBCHEM_CACTVS_TAUTO_COUNT>
-1

> <PUBCHEM_COORDINATE_TYPE>
1
5
255

> <PUBCHEM_BONDANNOTATIONS>
5  1  3
18  22  1
20  23  1
24  27  1
25  29  1
30  32  1
31  33  1
34  37  1
35  38  1
40  41  1

$$$$
