442673
  -OEChem-11212010262D

 95102  0     1  0  0  0  0  0999 V2000
    9.8716    0.0197    0.0000 O   0  0  0  0  0  0  0  0  0  0  0  0
    9.4560   -0.8201    0.0000 O   0  0  0  0  0  0  0  0  0  0  0  0
    7.8893    0.9749    0.0000 O   0  0  0  0  0  0  0  0  0  0  0  0
   11.2877    2.4354    0.0000 O   0  0  0  0  0  0  0  0  0  0  0  0
    8.7503   -1.5951    0.0000 O   0  0  0  0  0  0  0  0  0  0  0  0
    6.8679   -0.1157    0.0000 O   0  0  0  0  0  0  0  0  0  0  0  0
   12.5377    2.5405    0.0000 O   0  0  0  0  0  0  0  0  0  0  0  0
   11.7645   -0.6564    0.0000 O   0  0  0  0  0  0  0  0  0  0  0  0
   14.2697   -0.4595    0.0000 O   0  0  0  0  0  0  0  0  0  0  0  0
   14.2697    1.5405    0.0000 O   0  0  0  0  0  0  0  0  0  0  0  0
    9.6405   -2.4411    0.0000 O   0  0  0  0  0  0  0  0  0  0  0  0
   13.7303   -1.5123    0.0000 O   0  0  0  0  0  0  0  0  0  0  0  0
    6.4365    0.1177    0.0000 O   0  0  0  0  0  0  0  0  0  0  0  0
   13.5327   -3.4445    0.0000 O   0  0  0  0  0  0  0  0  0  0  0  0
   11.7704   -4.2612    0.0000 O   0  0  0  0  0  0  0  0  0  0  0  0
    9.1412   -3.2824    0.0000 O   0  0  0  0  0  0  0  0  0  0  0  0
    5.9107    1.5342    0.0000 O   0  0  0  0  0  0  0  0  0  0  0  0
    5.2406    4.0986    0.0000 O   0  0  0  0  0  0  0  0  0  0  0  0
    4.3635    3.6315    0.0000 O   0  0  0  0  0  0  0  0  0  0  0  0
    8.7788    3.9914    0.0000 O   0  0  0  0  0  0  0  0  0  0  0  0
    7.0409    5.0755    0.0000 O   0  0  0  0  0  0  0  0  0  0  0  0
    2.5483    2.6824    0.0000 O   0  0  0  0  0  0  0  0  0  0  0  0
    2.4784    0.6353    0.0000 O   0  0  0  0  0  0  0  0  0  0  0  0
    5.9269   -4.9160    0.0000 O   0  0  0  0  0  0  0  0  0  0  0  0
    5.1452   -1.5412    0.0000 O   0  0  0  0  0  0  0  0  0  0  0  0
    4.5618   -3.4543    0.0000 O   0  0  0  0  0  0  0  0  0  0  0  0
    9.8716    1.0614    0.0000 C   0  0  2  0  0  0  0  0  0  0  0  0
    9.3547    0.1889    0.0000 C   0  0  2  0  0  0  0  0  0  0  0  0
    8.3594    0.0923    0.0000 C   0  0  1  0  0  0  0  0  0  0  0  0
   10.7777    1.5752    0.0000 C   0  0  2  0  0  0  0  0  0  0  0  0
   11.6717    1.0405    0.0000 C   0  0  0  0  0  0  0  0  0  0  0  0
    8.0678   -0.8642    0.0000 C   0  0  1  0  0  0  0  0  0  0  0  0
   11.6717    0.0405    0.0000 C   0  0  0  0  0  0  0  0  0  0  0  0
   12.5377   -0.4595    0.0000 C   0  0  0  0  0  0  0  0  0  0  0  0
   10.7777   -0.4941    0.0000 C   0  0  0  0  0  0  0  0  0  0  0  0
   12.5377    1.5405    0.0000 C   0  0  0  0  0  0  0  0  0  0  0  0
    7.0936   -1.0899    0.0000 C   0  0  0  0  0  0  0  0  0  0  0  0
   12.0498   -1.3485    0.0000 C   0  0  0  0  0  0  0  0  0  0  0  0
   13.4037    0.0405    0.0000 C   0  0  0  0  0  0  0  0  0  0  0  0
   11.1297   -1.7749    0.0000 C   0  0  0  0  0  0  0  0  0  0  0  0
   10.1360   -1.5724    0.0000 C   0  0  0  0  0  0  0  0  0  0  0  0
   13.4037    1.0405    0.0000 C   0  0  0  0  0  0  0  0  0  0  0  0
    6.8899    1.0091    0.0000 C   0  0  0  0  0  0  0  0  0  0  0  0
   12.8154   -1.9159    0.0000 C   0  0  0  0  0  0  0  0  0  0  0  0
   11.0677   -2.7259    0.0000 C   0  0  0  0  0  0  0  0  0  0  0  0
    6.9240    2.0085    0.0000 C   0  0  0  0  0  0  0  0  0  0  0  0
   12.7185   -2.8640    0.0000 C   0  0  0  0  0  0  0  0  0  0  0  0
    8.4586   -2.5516    0.0000 C   0  0  0  0  0  0  0  0  0  0  0  0
   11.8538   -3.2647    0.0000 C   0  0  0  0  0  0  0  0  0  0  0  0
    6.0756    2.5378    0.0000 C   0  0  0  0  0  0  0  0  0  0  0  0
    6.0073    0.5389    0.0000 C   0  0  0  0  0  0  0  0  0  0  0  0
    5.1930    2.0676    0.0000 C   0  0  0  0  0  0  0  0  0  0  0  0
    5.1588    1.0682    0.0000 C   0  0  0  0  0  0  0  0  0  0  0  0
    7.8508    2.4839    0.0000 C   0  0  0  0  0  0  0  0  0  0  0  0
    7.4844   -2.7773    0.0000 C   0  0  0  0  0  0  0  0  0  0  0  0
    6.0951    3.5792    0.0000 C   0  0  0  0  0  0  0  0  0  0  0  0
    4.3178    2.6325    0.0000 C   0  0  0  0  0  0  0  0  0  0  0  0
    7.8944    3.5247    0.0000 C   0  0  0  0  0  0  0  0  0  0  0  0
    4.2471    0.5644    0.0000 C   0  0  0  0  0  0  0  0  0  0  0  0
    7.0106    4.0760    0.0000 C   0  0  0  0  0  0  0  0  0  0  0  0
    3.3947    2.1499    0.0000 C   0  0  0  0  0  0  0  0  0  0  0  0
    6.8019   -2.0464    0.0000 C   0  0  0  0  0  0  0  0  0  0  0  0
    7.1928   -3.7338    0.0000 C   0  0  0  0  0  0  0  0  0  0  0  0
    3.3592    1.1089    0.0000 C   0  0  0  0  0  0  0  0  0  0  0  0
    6.2186   -3.9595    0.0000 C   0  0  0  0  0  0  0  0  0  0  0  0
    5.8277   -2.2721    0.0000 C   0  0  0  0  0  0  0  0  0  0  0  0
    5.5360   -3.2286    0.0000 C   0  0  0  0  0  0  0  0  0  0  0  0
    9.2763    1.6681    0.0000 H   0  0  0  0  0  0  0  0  0  0  0  0
    8.6220    0.6198    0.0000 H   0  0  0  0  0  0  0  0  0  0  0  0
    8.8977   -0.5655    0.0000 H   0  0  0  0  0  0  0  0  0  0  0  0
   10.4739    2.1157    0.0000 H   0  0  0  0  0  0  0  0  0  0  0  0
    8.6718   -0.7243    0.0000 H   0  0  0  0  0  0  0  0  0  0  0  0
    6.4896   -1.2298    0.0000 H   0  0  0  0  0  0  0  0  0  0  0  0
    7.2335   -1.6939    0.0000 H   0  0  0  0  0  0  0  0  0  0  0  0
   10.9839    2.9759    0.0000 H   0  0  0  0  0  0  0  0  0  0  0  0
   10.5101   -2.9969    0.0000 H   0  0  0  0  0  0  0  0  0  0  0  0
   13.0746    2.8505    0.0000 H   0  0  0  0  0  0  0  0  0  0  0  0
   14.8067   -0.1495    0.0000 H   0  0  0  0  0  0  0  0  0  0  0  0
   14.8067    1.2305    0.0000 H   0  0  0  0  0  0  0  0  0  0  0  0
    8.3730    2.1497    0.0000 H   0  0  0  0  0  0  0  0  0  0  0  0
   14.2307   -1.8784    0.0000 H   0  0  0  0  0  0  0  0  0  0  0  0
    4.2331   -0.0555    0.0000 H   0  0  0  0  0  0  0  0  0  0  0  0
   13.4734   -4.0617    0.0000 H   0  0  0  0  0  0  0  0  0  0  0  0
   11.2095   -4.5254    0.0000 H   0  0  0  0  0  0  0  0  0  0  0  0
    6.9827   -1.4534    0.0000 H   0  0  0  0  0  0  0  0  0  0  0  0
    7.6160   -4.1869    0.0000 H   0  0  0  0  0  0  0  0  0  0  0  0
    5.2546    4.7185    0.0000 H   0  0  0  0  0  0  0  0  0  0  0  0
    3.8413    3.9657    0.0000 H   0  0  0  0  0  0  0  0  0  0  0  0
    8.8024    4.6109    0.0000 H   0  0  0  0  0  0  0  0  0  0  0  0
    7.5870    5.3691    0.0000 H   0  0  0  0  0  0  0  0  0  0  0  0
    2.0000    2.3931    0.0000 H   0  0  0  0  0  0  0  0  0  0  0  0
    2.4596    0.0156    0.0000 H   0  0  0  0  0  0  0  0  0  0  0  0
    6.3501   -5.3691    0.0000 H   0  0  0  0  0  0  0  0  0  0  0  0
    4.5412   -1.6812    0.0000 H   0  0  0  0  0  0  0  0  0  0  0  0
    4.3810   -4.0474    0.0000 H   0  0  0  0  0  0  0  0  0  0  0  0
  1 27  1  0  0  0  0
  1 35  1  0  0  0  0
  2 28  1  0  0  0  0
  2 41  1  0  0  0  0
  3 29  1  0  0  0  0
  3 43  1  0  0  0  0
 30  4  1  1  0  0  0
  4 75  1  0  0  0  0
 32  5  1  6  0  0  0
  5 48  1  0  0  0  0
  6 37  1  0  0  0  0
  6 51  1  0  0  0  0
  7 36  1  0  0  0  0
  7 77  1  0  0  0  0
  8 35  2  0  0  0  0
  9 39  1  0  0  0  0
  9 78  1  0  0  0  0
 10 42  1  0  0  0  0
 10 79  1  0  0  0  0
 11 41  2  0  0  0  0
 12 44  1  0  0  0  0
 12 81  1  0  0  0  0
 13 43  2  0  0  0  0
 14 47  1  0  0  0  0
 14 83  1  0  0  0  0
 15 49  1  0  0  0  0
 15 84  1  0  0  0  0
 16 48  2  0  0  0  0
 17 51  2  0  0  0  0
 18 56  1  0  0  0  0
 18 87  1  0  0  0  0
 19 57  1  0  0  0  0
 19 88  1  0  0  0  0
 20 58  1  0  0  0  0
 20 89  1  0  0  0  0
 21 60  1  0  0  0  0
 21 90  1  0  0  0  0
 22 61  1  0  0  0  0
 22 91  1  0  0  0  0
 23 64  1  0  0  0  0
 23 92  1  0  0  0  0
 24 65  1  0  0  0  0
 24 93  1  0  0  0  0
 25 66  1  0  0  0  0
 25 94  1  0  0  0  0
 26 67  1  0  0  0  0
 26 95  1  0  0  0  0
 27 28  1  0  0  0  0
 27 30  1  0  0  0  0
 27 68  1  1  0  0  0
 28 29  1  0  0  0  0
 28 69  1  6  0  0  0
 29 32  1  0  0  0  0
 29 70  1  6  0  0  0
 30 31  1  0  0  0  0
 30 71  1  0  0  0  0
 31 33  1  0  0  0  0
 31 36  2  0  0  0  0
 32 37  1  0  0  0  0
 32 72  1  0  0  0  0
 33 34  2  0  0  0  0
 33 35  1  0  0  0  0
 34 38  1  0  0  0  0
 34 39  1  0  0  0  0
 36 42  1  0  0  0  0
 37 73  1  0  0  0  0
 37 74  1  0  0  0  0
 38 40  1  0  0  0  0
 38 44  2  0  0  0  0
 39 42  2  0  0  0  0
 40 41  1  0  0  0  0
 40 45  2  0  0  0  0
 43 46  1  0  0  0  0
 44 47  1  0  0  0  0
 45 49  1  0  0  0  0
 45 76  1  0  0  0  0
 46 50  1  0  0  0  0
 46 54  2  0  0  0  0
 47 49  2  0  0  0  0
 48 55  1  0  0  0  0
 50 52  1  0  0  0  0
 50 56  2  0  0  0  0
 51 53  1  0  0  0  0
 52 53  1  0  0  0  0
 52 57  2  0  0  0  0
 53 59  2  0  0  0  0
 54 58  1  0  0  0  0
 54 80  1  0  0  0  0
 55 62  2  0  0  0  0
 55 63  1  0  0  0  0
 56 60  1  0  0  0  0
 57 61  1  0  0  0  0
 58 60  2  0  0  0  0
 59 64  1  0  0  0  0
 59 82  1  0  0  0  0
 61 64  2  0  0  0  0
 62 66  1  0  0  0  0
 62 85  1  0  0  0  0
 63 65  2  0  0  0  0
 63 86  1  0  0  0  0
 65 67  1  0  0  0  0
 66 67  2  0  0  0  0
M  END
> <PUBCHEM_COMPOUND_CID>
442673

> <PUBCHEM_COMPOUND_CANONICALIZED>
1

> <PUBCHEM_CACTVS_COMPLEXITY>
1880

> <PUBCHEM_CACTVS_HBOND_ACCEPTOR>
26

> <PUBCHEM_CACTVS_HBOND_DONOR>
16

> <PUBCHEM_CACTVS_ROTATABLE_BOND>
4

> <PUBCHEM_CACTVS_SUBSKEYS>
AAADceB8PgAAAAAAAAAAAAAAAAAAAAAAAAA0YMGDAAAAAACRVAAAGgAACAAADBSgmAIwDoAABgCIAiDSCAACAAAkIAAAiAEGiMgJNzKCNRqCcQElwBULuYfK7PzOoAADCAAYQABAAAYQADCAAAAAAAAAAA==

> <PUBCHEM_IUPAC_OPENEYE_NAME>
[(10R,11R)-10-[(14R,15S,19S)-2,3,4,7,8,9,19-heptahydroxy-12,17-dioxo-13,16-dioxatetracyclo[13.3.1.05,18.06,11]nonadeca-1,3,5(18),6,8,10-hexaen-14-yl]-3,4,5,17,18,19-hexahydroxy-8,14-dioxo-9,13-dioxatricyclo[13.4.0.02,7]nonadeca-1(19),2,4,6,15,17-hexaen-11-yl] 3,4,5-trihydroxybenzoate

> <PUBCHEM_IUPAC_CAS_NAME>
3,4,5-trihydroxybenzoic acid [(10R,11R)-10-[(14R,15S,19S)-2,3,4,7,8,9,19-heptahydroxy-12,17-dioxo-13,16-dioxatetracyclo[13.3.1.05,18.06,11]nonadeca-1,3,5(18),6,8,10-hexaen-14-yl]-3,4,5,17,18,19-hexahydroxy-8,14-dioxo-9,13-dioxatricyclo[13.4.0.02,7]nonadeca-1(19),2,4,6,15,17-hexaen-11-yl] ester

> <PUBCHEM_IUPAC_NAME_MARKUP>
[(10<I>R</I>,11<I>R</I>)-10-[(14<I>R</I>,15<I>S</I>,19<I>S</I>)-2,3,4,7,8,9,19-heptahydroxy-12,17-dioxo-13,16-dioxatetracyclo[13.3.1.0<SUP>5,18</SUP>.0<SUP>6,11</SUP>]nonadeca-1,3,5(18),6,8,10-hexaen-14-yl]-3,4,5,17,18,19-hexahydroxy-8,14-dioxo-9,13-dioxatricyclo[13.4.0.0<SUP>2,7</SUP>]nonadeca-1(19),2,4,6,15,17-hexaen-11-yl] 3,4,5-trihydroxybenzoate

> <PUBCHEM_IUPAC_NAME>
[(10R,11R)-10-[(14R,15S,19S)-2,3,4,7,8,9,19-heptahydroxy-12,17-dioxo-13,16-dioxatetracyclo[13.3.1.05,18.06,11]nonadeca-1,3,5(18),6,8,10-hexaen-14-yl]-3,4,5,17,18,19-hexahydroxy-8,14-dioxo-9,13-dioxatricyclo[13.4.0.02,7]nonadeca-1(19),2,4,6,15,17-hexaen-11-yl] 3,4,5-trihydroxybenzoate

> <PUBCHEM_IUPAC_SYSTEMATIC_NAME>
[(10R,11R)-10-[(14R,15S,19S)-2,3,4,7,8,9,19-heptakis(oxidanyl)-12,17-bis(oxidanylidene)-13,16-dioxatetracyclo[13.3.1.05,18.06,11]nonadeca-1,3,5(18),6,8,10-hexaen-14-yl]-3,4,5,17,18,19-hexakis(oxidanyl)-8,14-bis(oxidanylidene)-9,13-dioxatricyclo[13.4.0.02,7]nonadeca-1(19),2,4,6,15,17-hexaen-11-yl] 3,4,5-tris(oxidanyl)benzoate

> <PUBCHEM_IUPAC_TRADITIONAL_NAME>
3,4,5-trihydroxybenzoic acid [(10R,11R)-10-[(14R,15S,19S)-2,3,4,7,8,9,19-heptahydroxy-12,17-diketo-13,16-dioxatetracyclo[13.3.1.05,18.06,11]nonadeca-1,3,5(18),6,8,10-hexaen-14-yl]-3,4,5,17,18,19-hexahydroxy-8,14-diketo-9,13-dioxatricyclo[13.4.0.02,7]nonadeca-1(19),2,4,6,15,17-hexaen-11-yl] ester

> <PUBCHEM_IUPAC_INCHI>
InChI=1S/C41H28O26/c42-11-1-7(2-12(43)23(11)47)37(58)64-16-6-63-38(59)8-3-13(44)24(48)27(51)17(8)18-9(4-14(45)25(49)28(18)52)39(60)65-34(16)36-35-32(56)22-21(41(62)66-35)20(30(54)33(57)31(22)55)19-10(40(61)67-36)5-15(46)26(50)29(19)53/h1-5,16,32,34-36,42-57H,6H2/t16-,32+,34-,35+,36+/m1/s1

> <PUBCHEM_IUPAC_INCHIKEY>
MMQXBTULXAEKQE-VSLJGAQWSA-N

> <PUBCHEM_XLOGP3_AA>
1.2

> <PUBCHEM_EXACT_MASS>
936.086881

> <PUBCHEM_MOLECULAR_FORMULA>
C41H28O26

> <PUBCHEM_MOLECULAR_WEIGHT>
936.6

> <PUBCHEM_OPENEYE_CAN_SMILES>
C1C(C(OC(=O)C2=CC(=C(C(=C2C3=C(C(=C(C=C3C(=O)O1)O)O)O)O)O)O)C4C5C(C6=C(C(=C(C(=C6C(=O)O5)C7=C(C(=C(C=C7C(=O)O4)O)O)O)O)O)O)O)OC(=O)C8=CC(=C(C(=C8)O)O)O

> <PUBCHEM_OPENEYE_ISO_SMILES>
C1[C@H]([C@@H](OC(=O)C2=CC(=C(C(=C2C3=C(C(=C(C=C3C(=O)O1)O)O)O)O)O)O)[C@H]4[C@@H]5[C@H](C6=C(C(=C(C(=C6C(=O)O5)C7=C(C(=C(C=C7C(=O)O4)O)O)O)O)O)O)O)OC(=O)C8=CC(=C(C(=C8)O)O)O

> <PUBCHEM_CACTVS_TPSA>
455

> <PUBCHEM_MONOISOTOPIC_WEIGHT>
936.086881

> <PUBCHEM_TOTAL_CHARGE>
0

> <PUBCHEM_HEAVY_ATOM_COUNT>
67

> <PUBCHEM_ATOM_DEF_STEREO_COUNT>
5

> <PUBCHEM_ATOM_UDEF_STEREO_COUNT>
0

> <PUBCHEM_BOND_DEF_STEREO_COUNT>
0

> <PUBCHEM_BOND_UDEF_STEREO_COUNT>
0

> <PUBCHEM_ISOTOPIC_ATOM_COUNT>
0

> <PUBCHEM_COMPONENT_COUNT>
1

> <PUBCHEM_CACTVS_TAUTO_COUNT>
-1

> <PUBCHEM_COORDINATE_TYPE>
1
5
255

> <PUBCHEM_BONDANNOTATIONS>
27  68  5
28  69  6
29  70  6
31  33  8
31  36  8
33  34  8
34  39  8
36  42  8
38  40  8
38  44  8
39  42  8
30  4  5
40  45  8
44  47  8
45  49  8
46  50  8
46  54  8
47  49  8
32  5  6
50  56  8
52  53  8
52  57  8
53  59  8
54  58  8
55  62  8
55  63  8
56  60  8
57  61  8
58  60  8
59  64  8
61  64  8
62  66  8
63  65  8
65  67  8
66  67  8

$$$$
