169853
  -OEChem-09292009152D

101109  0     1  0  0  0  0  0999 V2000
    9.5412   -0.8983    0.0000 O   0  0  0  0  0  0  0  0  0  0  0  0
    6.7878   -3.7637    0.0000 O   0  0  0  0  0  0  0  0  0  0  0  0
   11.2732    1.1017    0.0000 O   0  0  0  0  0  0  0  0  0  0  0  0
    8.2175    2.6108    0.0000 O   0  0  0  0  0  0  0  0  0  0  0  0
    5.8158   -1.3029    0.0000 O   0  0  0  0  0  0  0  0  0  0  0  0
    7.4501    2.0800    0.0000 O   0  0  0  0  0  0  0  0  0  0  0  0
    5.8752   -0.4229    0.0000 O   0  0  0  0  0  0  0  0  0  0  0  0
    7.2583    5.1509    0.0000 O   0  0  0  0  0  0  0  0  0  0  0  0
   11.8077    1.8731    0.0000 O   0  0  0  0  0  0  0  0  0  0  0  0
    9.8732   -1.7662    0.0000 O   0  0  0  0  0  0  0  0  0  0  0  0
   10.9093    4.8605    0.0000 O   0  0  0  0  0  0  0  0  0  0  0  0
   10.1108   -4.9554    0.0000 O   0  0  0  0  0  0  0  0  0  0  0  0
   12.1393   -3.3983    0.0000 O   0  0  0  0  0  0  0  0  0  0  0  0
   13.8713   -2.3983    0.0000 O   0  0  0  0  0  0  0  0  0  0  0  0
    3.5085   -5.2624    0.0000 O   0  0  0  0  0  0  0  0  0  0  0  0
    2.2053   -3.7452    0.0000 O   0  0  0  0  0  0  0  0  0  0  0  0
    4.2821    4.5758    0.0000 O   0  0  0  0  0  0  0  0  0  0  0  0
    3.6054    2.6939    0.0000 O   0  0  0  0  0  0  0  0  0  0  0  0
    9.5412    1.1017    0.0000 C   0  0  2  0  0  0  0  0  0  0  0  0
   10.4072    0.6017    0.0000 C   0  0  2  0  0  0  0  0  0  0  0  0
    7.4501   -1.8765    0.0000 C   0  0  2  0  0  0  0  0  0  0  0  0
    8.6752    0.6017    0.0000 C   0  0  0  0  0  0  0  0  0  0  0  0
   10.4072   -0.3983    0.0000 C   0  0  1  0  0  0  0  0  0  0  0  0
    8.6752   -0.3983    0.0000 C   0  0  0  0  0  0  0  0  0  0  0  0
    7.7812   -0.9329    0.0000 C   0  0  0  0  0  0  0  0  0  0  0  0
    6.4674   -2.0616    0.0000 C   0  0  2  0  0  0  0  0  0  0  0  0
    9.8832    2.0414    0.0000 C   0  0  0  0  0  0  0  0  0  0  0  0
    6.1363   -3.0052    0.0000 C   0  0  1  0  0  0  0  0  0  0  0  0
    8.1017   -2.6351    0.0000 C   0  0  0  0  0  0  0  0  0  0  0  0
    9.2404    2.8075    0.0000 C   0  0  0  0  0  0  0  0  0  0  0  0
    7.7812    1.1364    0.0000 C   0  0  0  0  0  0  0  0  0  0  0  0
    6.8752   -0.4191    0.0000 C   0  0  0  0  0  0  0  0  0  0  0  0
    9.5824    3.7472    0.0000 C   0  0  0  0  0  0  0  0  0  0  0  0
   11.2732   -0.8983    0.0000 C   0  0  0  0  0  0  0  0  0  0  0  0
    8.9253    4.5553    0.0000 C   0  0  0  0  0  0  0  0  0  0  0  0
    7.8981    4.3824    0.0000 C   0  0  2  0  0  0  0  0  0  0  0  0
    7.7706   -3.5786    0.0000 C   0  0  0  0  0  0  0  0  0  0  0  0
    7.5418    3.4036    0.0000 C   0  0  1  0  0  0  0  0  0  0  0  0
   10.8680    2.2151    0.0000 C   0  0  0  0  0  0  0  0  0  0  0  0
    6.8752    0.6226    0.0000 C   0  0  0  0  0  0  0  0  0  0  0  0
    5.1535   -3.1902    0.0000 C   0  0  0  0  0  0  0  0  0  0  0  0
    9.1222   -2.4266    0.0000 C   0  0  0  0  0  0  0  0  0  0  0  0
   10.5673    3.9208    0.0000 C   0  0  0  0  0  0  0  0  0  0  0  0
   11.2100    3.1548    0.0000 C   0  0  0  0  0  0  0  0  0  0  0  0
   11.2732   -1.8983    0.0000 C   0  0  0  0  0  0  0  0  0  0  0  0
    8.4370   -4.3792    0.0000 C   0  0  0  0  0  0  0  0  0  0  0  0
   12.1393   -0.3983    0.0000 C   0  0  0  0  0  0  0  0  0  0  0  0
    6.5577    3.2261    0.0000 C   0  0  0  0  0  0  0  0  0  0  0  0
    9.8070   -3.2115    0.0000 C   0  0  0  0  0  0  0  0  0  0  0  0
    9.4621   -4.1943    0.0000 C   0  0  0  0  0  0  0  0  0  0  0  0
    4.8224   -4.1338    0.0000 C   0  0  0  0  0  0  0  0  0  0  0  0
    4.5019   -2.4316    0.0000 C   0  0  0  0  0  0  0  0  0  0  0  0
   12.1393   -2.3983    0.0000 C   0  0  0  0  0  0  0  0  0  0  0  0
   13.0053   -0.8983    0.0000 C   0  0  0  0  0  0  0  0  0  0  0  0
    5.9120    3.9897    0.0000 C   0  0  0  0  0  0  0  0  0  0  0  0
    6.2194    2.2852    0.0000 C   0  0  0  0  0  0  0  0  0  0  0  0
   13.0053   -1.8983    0.0000 C   0  0  0  0  0  0  0  0  0  0  0  0
    3.8397   -4.3188    0.0000 C   0  0  0  0  0  0  0  0  0  0  0  0
    3.5192   -2.6166    0.0000 C   0  0  0  0  0  0  0  0  0  0  0  0
    3.1880   -3.5602    0.0000 C   0  0  0  0  0  0  0  0  0  0  0  0
    4.9279    3.8122    0.0000 C   0  0  0  0  0  0  0  0  0  0  0  0
    5.2352    2.1077    0.0000 C   0  0  0  0  0  0  0  0  0  0  0  0
    4.5895    2.8713    0.0000 C   0  0  0  0  0  0  0  0  0  0  0  0
   10.3399    1.3925    0.0000 H   0  0  0  0  0  0  0  0  0  0  0  0
   10.9442    0.2917    0.0000 H   0  0  0  0  0  0  0  0  0  0  0  0
    6.8962   -1.2317    0.0000 H   0  0  0  0  0  0  0  0  0  0  0  0
   10.4072   -1.0183    0.0000 H   0  0  0  0  0  0  0  0  0  0  0  0
    5.8581   -2.1763    0.0000 H   0  0  0  0  0  0  0  0  0  0  0  0
    5.9310   -3.5902    0.0000 H   0  0  0  0  0  0  0  0  0  0  0  0
    9.4662    4.8584    0.0000 H   0  0  0  0  0  0  0  0  0  0  0  0
    8.7192    5.1401    0.0000 H   0  0  0  0  0  0  0  0  0  0  0  0
    7.2873    4.2759    0.0000 H   0  0  0  0  0  0  0  0  0  0  0  0
    7.1424    3.8777    0.0000 H   0  0  0  0  0  0  0  0  0  0  0  0
    6.3394    0.9346    0.0000 H   0  0  0  0  0  0  0  0  0  0  0  0
   11.8102    0.7917    0.0000 H   0  0  0  0  0  0  0  0  0  0  0  0
   11.8206    3.2624    0.0000 H   0  0  0  0  0  0  0  0  0  0  0  0
    5.2065   -1.4176    0.0000 H   0  0  0  0  0  0  0  0  0  0  0  0
   10.7363   -2.2083    0.0000 H   0  0  0  0  0  0  0  0  0  0  0  0
    8.2250   -4.9618    0.0000 H   0  0  0  0  0  0  0  0  0  0  0  0
   12.1393    0.2217    0.0000 H   0  0  0  0  0  0  0  0  0  0  0  0
   10.4159   -3.0944    0.0000 H   0  0  0  0  0  0  0  0  0  0  0  0
    6.8408    2.1947    0.0000 H   0  0  0  0  0  0  0  0  0  0  0  0
    5.5631    0.1129    0.0000 H   0  0  0  0  0  0  0  0  0  0  0  0
    5.2264   -4.6041    0.0000 H   0  0  0  0  0  0  0  0  0  0  0  0
    4.7072   -1.8466    0.0000 H   0  0  0  0  0  0  0  0  0  0  0  0
    7.4726    5.7327    0.0000 H   0  0  0  0  0  0  0  0  0  0  0  0
   12.2827    2.2716    0.0000 H   0  0  0  0  0  0  0  0  0  0  0  0
   13.5422   -0.5883    0.0000 H   0  0  0  0  0  0  0  0  0  0  0  0
    6.1218    4.5731    0.0000 H   0  0  0  0  0  0  0  0  0  0  0  0
    6.6197    1.8118    0.0000 H   0  0  0  0  0  0  0  0  0  0  0  0
   10.4606   -1.9648    0.0000 H   0  0  0  0  0  0  0  0  0  0  0  0
   11.5199    4.9682    0.0000 H   0  0  0  0  0  0  0  0  0  0  0  0
    3.1152   -2.1463    0.0000 H   0  0  0  0  0  0  0  0  0  0  0  0
    5.0254    1.5243    0.0000 H   0  0  0  0  0  0  0  0  0  0  0  0
    9.9032   -5.5396    0.0000 H   0  0  0  0  0  0  0  0  0  0  0  0
   12.6762   -3.7083    0.0000 H   0  0  0  0  0  0  0  0  0  0  0  0
   14.4083   -2.0883    0.0000 H   0  0  0  0  0  0  0  0  0  0  0  0
    3.9125   -5.7327    0.0000 H   0  0  0  0  0  0  0  0  0  0  0  0
    2.0000   -4.3302    0.0000 H   0  0  0  0  0  0  0  0  0  0  0  0
    3.6720    4.4658    0.0000 H   0  0  0  0  0  0  0  0  0  0  0  0
    3.3955    2.1104    0.0000 H   0  0  0  0  0  0  0  0  0  0  0  0
  1 23  1  0  0  0  0
  1 24  1  0  0  0  0
  2 28  1  0  0  0  0
  2 37  1  0  0  0  0
 20  3  1  1  0  0  0
  3 75  1  0  0  0  0
  4 30  1  0  0  0  0
  4 38  1  0  0  0  0
 26  5  1  6  0  0  0
  5 77  1  0  0  0  0
  6 31  1  0  0  0  0
  6 82  1  0  0  0  0
  7 32  1  0  0  0  0
  7 83  1  0  0  0  0
 36  8  1  6  0  0  0
  8 86  1  0  0  0  0
  9 39  1  0  0  0  0
  9 87  1  0  0  0  0
 10 42  1  0  0  0  0
 10 91  1  0  0  0  0
 11 43  1  0  0  0  0
 11 92  1  0  0  0  0
 12 50  1  0  0  0  0
 12 95  1  0  0  0  0
 13 53  1  0  0  0  0
 13 96  1  0  0  0  0
 14 57  1  0  0  0  0
 14 97  1  0  0  0  0
 15 58  1  0  0  0  0
 15 98  1  0  0  0  0
 16 60  1  0  0  0  0
 16 99  1  0  0  0  0
 17 61  1  0  0  0  0
 17100  1  0  0  0  0
 18 63  1  0  0  0  0
 18101  1  0  0  0  0
 19 20  1  0  0  0  0
 19 22  1  0  0  0  0
 19 27  1  0  0  0  0
 19 64  1  1  0  0  0
 20 23  1  0  0  0  0
 20 65  1  0  0  0  0
 21 25  1  0  0  0  0
 21 26  1  0  0  0  0
 21 29  1  0  0  0  0
 21 66  1  6  0  0  0
 22 24  1  0  0  0  0
 22 31  2  0  0  0  0
 23 34  1  1  0  0  0
 23 67  1  0  0  0  0
 24 25  2  0  0  0  0
 25 32  1  0  0  0  0
 26 28  1  0  0  0  0
 26 68  1  0  0  0  0
 27 30  1  0  0  0  0
 27 39  2  0  0  0  0
 28 41  1  6  0  0  0
 28 69  1  0  0  0  0
 29 37  1  0  0  0  0
 29 42  2  0  0  0  0
 30 33  2  0  0  0  0
 31 40  1  0  0  0  0
 32 40  2  0  0  0  0
 33 35  1  0  0  0  0
 33 43  1  0  0  0  0
 34 45  2  0  0  0  0
 34 47  1  0  0  0  0
 35 36  1  0  0  0  0
 35 70  1  0  0  0  0
 35 71  1  0  0  0  0
 36 38  1  0  0  0  0
 36 72  1  0  0  0  0
 37 46  2  0  0  0  0
 38 48  1  6  0  0  0
 38 73  1  0  0  0  0
 39 44  1  0  0  0  0
 40 74  1  0  0  0  0
 41 51  2  0  0  0  0
 41 52  1  0  0  0  0
 42 49  1  0  0  0  0
 43 44  2  0  0  0  0
 44 76  1  0  0  0  0
 45 53  1  0  0  0  0
 45 78  1  0  0  0  0
 46 50  1  0  0  0  0
 46 79  1  0  0  0  0
 47 54  2  0  0  0  0
 47 80  1  0  0  0  0
 48 55  2  0  0  0  0
 48 56  1  0  0  0  0
 49 50  2  0  0  0  0
 49 81  1  0  0  0  0
 51 58  1  0  0  0  0
 51 84  1  0  0  0  0
 52 59  2  0  0  0  0
 52 85  1  0  0  0  0
 53 57  2  0  0  0  0
 54 57  1  0  0  0  0
 54 88  1  0  0  0  0
 55 61  1  0  0  0  0
 55 89  1  0  0  0  0
 56 62  2  0  0  0  0
 56 90  1  0  0  0  0
 58 60  2  0  0  0  0
 59 60  1  0  0  0  0
 59 93  1  0  0  0  0
 61 63  2  0  0  0  0
 62 63  1  0  0  0  0
 62 94  1  0  0  0  0
M  END
> <PUBCHEM_COMPOUND_CID>
169853

> <PUBCHEM_COMPOUND_CANONICALIZED>
1

> <PUBCHEM_CACTVS_COMPLEXITY>
1550

> <PUBCHEM_CACTVS_HBOND_ACCEPTOR>
18

> <PUBCHEM_CACTVS_HBOND_DONOR>
15

> <PUBCHEM_CACTVS_ROTATABLE_BOND>
5

> <PUBCHEM_CACTVS_SUBSKEYS>
AAADcfB8PgAAAAAAAAAAAAAAAAAAAAAAAAA0aNGDAAAAAACRVAAAGgAACAAADRSgmAIwBoAABgCAAiBCAAACCAAgIAAIiAAGiIgNNyKGMRqCeCGlwBULuAfA4PwOoAADCAAIQABAAAYQABCAAAAAAAAAAA==

> <PUBCHEM_IUPAC_OPENEYE_NAME>
(2R,3R,4S)-2-(3,4-dihydroxyphenyl)-4-[(2R,3R)-2-(3,4-dihydroxyphenyl)-3,5,7-trihydroxy-chroman-8-yl]-8-[(2R,3R,4R)-2-(3,4-dihydroxyphenyl)-3,5,7-trihydroxy-chroman-4-yl]chromane-3,5,7-triol

> <PUBCHEM_IUPAC_CAS_NAME>
(2R,3R,4S)-2-(3,4-dihydroxyphenyl)-4-[(2R,3R)-2-(3,4-dihydroxyphenyl)-3,5,7-trihydroxy-3,4-dihydro-2H-1-benzopyran-8-yl]-8-[(2R,3R,4R)-2-(3,4-dihydroxyphenyl)-3,5,7-trihydroxy-3,4-dihydro-2H-1-benzopyran-4-yl]-3,4-dihydro-2H-1-benzopyran-3,5,7-triol

> <PUBCHEM_IUPAC_NAME_MARKUP>
(2<I>R</I>,3<I>R</I>,4<I>S</I>)-2-(3,4-dihydroxyphenyl)-4-[(2<I>R</I>,3<I>R</I>)-2-(3,4-dihydroxyphenyl)-3,5,7-trihydroxy-3,4-dihydro-2<I>H</I>-chromen-8-yl]-8-[(2<I>R</I>,3<I>R</I>,4<I>R</I>)-2-(3,4-dihydroxyphenyl)-3,5,7-trihydroxy-3,4-dihydro-2<I>H</I>-chromen-4-yl]-3,4-dihydro-2<I>H</I>-chromene-3,5,7-triol

> <PUBCHEM_IUPAC_NAME>
(2R,3R,4S)-2-(3,4-dihydroxyphenyl)-4-[(2R,3R)-2-(3,4-dihydroxyphenyl)-3,5,7-trihydroxy-3,4-dihydro-2H-chromen-8-yl]-8-[(2R,3R,4R)-2-(3,4-dihydroxyphenyl)-3,5,7-trihydroxy-3,4-dihydro-2H-chromen-4-yl]-3,4-dihydro-2H-chromene-3,5,7-triol

> <PUBCHEM_IUPAC_SYSTEMATIC_NAME>
(2R,3R,4S)-2-[3,4-bis(oxidanyl)phenyl]-4-[(2R,3R)-2-[3,4-bis(oxidanyl)phenyl]-3,5,7-tris(oxidanyl)-3,4-dihydro-2H-chromen-8-yl]-8-[(2R,3R,4R)-2-[3,4-bis(oxidanyl)phenyl]-3,5,7-tris(oxidanyl)-3,4-dihydro-2H-chromen-4-yl]-3,4-dihydro-2H-chromene-3,5,7-triol

> <PUBCHEM_IUPAC_TRADITIONAL_NAME>
(2R,3R,4S)-2-(3,4-dihydroxyphenyl)-4-[(2R,3R)-2-(3,4-dihydroxyphenyl)-3,5,7-trihydroxy-chroman-8-yl]-8-[(2R,3R,4R)-2-(3,4-dihydroxyphenyl)-3,5,7-trihydroxy-chroman-4-yl]chroman-3,5,7-triol

> <PUBCHEM_IUPAC_INCHI>
InChI=1S/C45H38O18/c46-18-10-27(54)33-32(11-18)61-42(16-2-5-21(48)25(52)8-16)39(59)37(33)35-29(56)14-30(57)36-38(40(60)43(63-45(35)36)17-3-6-22(49)26(53)9-17)34-28(55)13-23(50)19-12-31(58)41(62-44(19)34)15-1-4-20(47)24(51)7-15/h1-11,13-14,31,37-43,46-60H,12H2/t31-,37-,38+,39-,40-,41-,42-,43-/m1/s1

> <PUBCHEM_IUPAC_INCHIKEY>
MOJZMWJRUKIQGL-XILRTYJMSA-N

> <PUBCHEM_XLOGP3_AA>
3.3

> <PUBCHEM_EXACT_MASS>
866.205814

> <PUBCHEM_MOLECULAR_FORMULA>
C45H38O18

> <PUBCHEM_MOLECULAR_WEIGHT>
866.8

> <PUBCHEM_OPENEYE_CAN_SMILES>
C1C(C(OC2=C1C(=CC(=C2C3C(C(OC4=C(C(=CC(=C34)O)O)C5C(C(OC6=CC(=CC(=C56)O)O)C7=CC(=C(C=C7)O)O)O)C8=CC(=C(C=C8)O)O)O)O)O)C9=CC(=C(C=C9)O)O)O

> <PUBCHEM_OPENEYE_ISO_SMILES>
C1[C@H]([C@H](OC2=C1C(=CC(=C2[C@@H]3[C@H]([C@H](OC4=C(C(=CC(=C34)O)O)[C@@H]5[C@H]([C@H](OC6=CC(=CC(=C56)O)O)C7=CC(=C(C=C7)O)O)O)C8=CC(=C(C=C8)O)O)O)O)O)C9=CC(=C(C=C9)O)O)O

> <PUBCHEM_CACTVS_TPSA>
331

> <PUBCHEM_MONOISOTOPIC_WEIGHT>
866.205814

> <PUBCHEM_TOTAL_CHARGE>
0

> <PUBCHEM_HEAVY_ATOM_COUNT>
63

> <PUBCHEM_ATOM_DEF_STEREO_COUNT>
8

> <PUBCHEM_ATOM_UDEF_STEREO_COUNT>
0

> <PUBCHEM_BOND_DEF_STEREO_COUNT>
0

> <PUBCHEM_BOND_UDEF_STEREO_COUNT>
0

> <PUBCHEM_ISOTOPIC_ATOM_COUNT>
0

> <PUBCHEM_COMPONENT_COUNT>
1

> <PUBCHEM_CACTVS_TAUTO_COUNT>
-1

> <PUBCHEM_COORDINATE_TYPE>
1
5
255

> <PUBCHEM_BONDANNOTATIONS>
19  64  5
21  66  6
22  24  8
22  31  8
23  34  5
24  25  8
25  32  8
27  30  8
27  39  8
28  41  6
29  37  8
29  42  8
20  3  5
30  33  8
31  40  8
32  40  8
33  43  8
34  45  8
34  47  8
37  46  8
38  48  6
39  44  8
41  51  8
41  52  8
42  49  8
43  44  8
45  53  8
46  50  8
47  54  8
48  55  8
48  56  8
49  50  8
26  5  6
51  58  8
52  59  8
53  57  8
54  57  8
55  61  8
56  62  8
58  60  8
59  60  8
61  63  8
62  63  8
36  8  6

$$$$
