9940690
  -OEChem-09122011152D

111113  0     1  0  0  0  0  0999 V2000
    4.2690    5.9050    0.0000 O   0  0  0  0  0  0  0  0  0  0  0  0
    7.7331    6.9050    0.0000 O   0  0  0  0  0  0  0  0  0  0  0  0
    6.0010    5.9050    0.0000 O   0  0  0  0  0  0  0  0  0  0  0  0
    6.0010    8.9050    0.0000 O   0  0  0  0  0  0  0  0  0  0  0  0
    6.0010    3.9050    0.0000 O   0  0  0  0  0  0  0  0  0  0  0  0
    4.2690    2.9050    0.0000 O   0  0  0  0  0  0  0  0  0  0  0  0
    7.7331    9.9050    0.0000 O   0  0  0  0  0  0  0  0  0  0  0  0
    2.5369    3.9050    0.0000 O   0  0  0  0  0  0  0  0  0  0  0  0
    9.4651    8.9050    0.0000 O   0  0  0  0  0  0  0  0  0  0  0  0
    9.4651    6.9050    0.0000 O   0  0  0  0  0  0  0  0  0  0  0  0
   17.2594   -7.5950    0.0000 O   0  0  0  0  0  0  0  0  0  0  0  0
    2.5369    6.9050    0.0000 O   0  0  0  0  0  0  0  0  0  0  0  0
   19.8574   -8.0950    0.0000 O   0  0  0  0  0  0  0  0  0  0  0  0
   19.8574   -6.0950    0.0000 O   0  0  0  0  0  0  0  0  0  0  0  0
   18.1254   -5.0950    0.0000 O   0  0  0  0  0  0  0  0  0  0  0  0
   16.3933   -6.0950    0.0000 O   0  0  0  0  0  0  0  0  0  0  0  0
   17.2594   -9.5950    0.0000 O   0  0  0  0  0  0  0  0  0  0  0  0
    8.5991    5.4050    0.0000 O   0  0  0  0  0  0  0  0  0  0  0  0
   17.2594   -4.5950    0.0000 O   0  0  0  0  0  0  0  0  0  0  0  0
    6.8671    7.4050    0.0000 C   0  0  1  0  0  0  0  0  0  0  0  0
    6.8671    8.4050    0.0000 C   0  0  2  0  0  0  0  0  0  0  0  0
    5.1350    4.4050    0.0000 C   0  0  2  0  0  0  0  0  0  0  0  0
    4.2690    3.9050    0.0000 C   0  0  2  0  0  0  0  0  0  0  0  0
    7.7331    8.9050    0.0000 C   0  0  1  0  0  0  0  0  0  0  0  0
    5.1350    5.4050    0.0000 C   0  0  1  0  0  0  0  0  0  0  0  0
    3.4030    4.4050    0.0000 C   0  0  1  0  0  0  0  0  0  0  0  0
    3.4030    5.4050    0.0000 C   0  0  1  0  0  0  0  0  0  0  0  0
    8.5991    8.4050    0.0000 C   0  0  2  0  0  0  0  0  0  0  0  0
    6.0010    6.9050    0.0000 C   0  0  0  0  0  0  0  0  0  0  0  0
    8.5991    7.4050    0.0000 C   0  0  1  0  0  0  0  0  0  0  0  0
    2.5369    5.9050    0.0000 C   0  0  0  0  0  0  0  0  0  0  0  0
   18.9914   -7.5950    0.0000 C   0  0  1  0  0  0  0  0  0  0  0  0
   18.9914   -6.5950    0.0000 C   0  0  1  0  0  0  0  0  0  0  0  0
   18.1254   -8.0950    0.0000 C   0  0  1  0  0  0  0  0  0  0  0  0
   18.1254   -6.0950    0.0000 C   0  0  2  0  0  0  0  0  0  0  0  0
   17.2594   -6.5950    0.0000 C   0  0  1  0  0  0  0  0  0  0  0  0
   18.1254   -9.0950    0.0000 C   0  0  0  0  0  0  0  0  0  0  0  0
    9.4651    5.9050    0.0000 C   0  0  0  0  0  0  0  0  0  0  0  0
   10.3312    5.4050    0.0000 C   0  0  0  0  0  0  0  0  0  0  0  0
   16.3933   -5.0950    0.0000 C   0  0  0  0  0  0  0  0  0  0  0  0
   11.1972    5.9050    0.0000 C   0  0  0  0  0  0  0  0  0  0  0  0
   15.5273   -4.5950    0.0000 C   0  0  0  0  0  0  0  0  0  0  0  0
   10.3312    4.4050    0.0000 C   0  0  0  0  0  0  0  0  0  0  0  0
   14.6613   -5.0950    0.0000 C   0  0  0  0  0  0  0  0  0  0  0  0
   15.5273   -3.5950    0.0000 C   0  0  0  0  0  0  0  0  0  0  0  0
   11.1972    3.9050    0.0000 C   0  0  0  0  0  0  0  0  0  0  0  0
   14.6613   -3.0950    0.0000 C   0  0  0  0  0  0  0  0  0  0  0  0
   11.1972    2.9050    0.0000 C   0  0  0  0  0  0  0  0  0  0  0  0
   12.0632    2.4050    0.0000 C   0  0  0  0  0  0  0  0  0  0  0  0
   14.6613   -2.0950    0.0000 C   0  0  0  0  0  0  0  0  0  0  0  0
   13.7953   -1.5950    0.0000 C   0  0  0  0  0  0  0  0  0  0  0  0
   12.9292    2.9050    0.0000 C   0  0  0  0  0  0  0  0  0  0  0  0
   12.0632    1.4050    0.0000 C   0  0  0  0  0  0  0  0  0  0  0  0
   13.7953   -0.5950    0.0000 C   0  0  0  0  0  0  0  0  0  0  0  0
   12.9292   -2.0950    0.0000 C   0  0  0  0  0  0  0  0  0  0  0  0
   12.9292    0.9050    0.0000 C   0  0  0  0  0  0  0  0  0  0  0  0
   12.9292   -0.0950    0.0000 C   0  0  0  0  0  0  0  0  0  0  0  0
    6.8671    6.7850    0.0000 H   0  0  0  0  0  0  0  0  0  0  0  0
    6.3301    8.0950    0.0000 H   0  0  0  0  0  0  0  0  0  0  0  0
    5.1350    3.7850    0.0000 H   0  0  0  0  0  0  0  0  0  0  0  0
    3.7320    3.5950    0.0000 H   0  0  0  0  0  0  0  0  0  0  0  0
    7.1962    9.2150    0.0000 H   0  0  0  0  0  0  0  0  0  0  0  0
    5.1350    6.0250    0.0000 H   0  0  0  0  0  0  0  0  0  0  0  0
    3.4030    3.7850    0.0000 H   0  0  0  0  0  0  0  0  0  0  0  0
    3.4030    6.0250    0.0000 H   0  0  0  0  0  0  0  0  0  0  0  0
    8.5991    9.0250    0.0000 H   0  0  0  0  0  0  0  0  0  0  0  0
    5.7890    7.4876    0.0000 H   0  0  0  0  0  0  0  0  0  0  0  0
    5.3905    6.7973    0.0000 H   0  0  0  0  0  0  0  0  0  0  0  0
    8.5991    6.7850    0.0000 H   0  0  0  0  0  0  0  0  0  0  0  0
    1.9264    6.0127    0.0000 H   0  0  0  0  0  0  0  0  0  0  0  0
    2.3249    5.3224    0.0000 H   0  0  0  0  0  0  0  0  0  0  0  0
   19.5284   -7.2850    0.0000 H   0  0  0  0  0  0  0  0  0  0  0  0
   19.5284   -6.9050    0.0000 H   0  0  0  0  0  0  0  0  0  0  0  0
   17.5885   -8.4050    0.0000 H   0  0  0  0  0  0  0  0  0  0  0  0
   18.6623   -5.7850    0.0000 H   0  0  0  0  0  0  0  0  0  0  0  0
    6.0010    9.5250    0.0000 H   0  0  0  0  0  0  0  0  0  0  0  0
   16.7224   -6.9050    0.0000 H   0  0  0  0  0  0  0  0  0  0  0  0
    6.5380    4.2150    0.0000 H   0  0  0  0  0  0  0  0  0  0  0  0
    3.7320    2.5950    0.0000 H   0  0  0  0  0  0  0  0  0  0  0  0
    8.2700   10.2150    0.0000 H   0  0  0  0  0  0  0  0  0  0  0  0
    2.0000    4.2150    0.0000 H   0  0  0  0  0  0  0  0  0  0  0  0
   10.0021    8.5950    0.0000 H   0  0  0  0  0  0  0  0  0  0  0  0
   18.3374   -9.6776    0.0000 H   0  0  0  0  0  0  0  0  0  0  0  0
   18.7360   -8.9873    0.0000 H   0  0  0  0  0  0  0  0  0  0  0  0
    2.0000    7.2150    0.0000 H   0  0  0  0  0  0  0  0  0  0  0  0
   19.8574   -8.7150    0.0000 H   0  0  0  0  0  0  0  0  0  0  0  0
   20.3944   -6.4050    0.0000 H   0  0  0  0  0  0  0  0  0  0  0  0
   18.6623   -4.7850    0.0000 H   0  0  0  0  0  0  0  0  0  0  0  0
   17.2594  -10.2150    0.0000 H   0  0  0  0  0  0  0  0  0  0  0  0
   11.5072    5.3681    0.0000 H   0  0  0  0  0  0  0  0  0  0  0  0
   11.7341    6.2150    0.0000 H   0  0  0  0  0  0  0  0  0  0  0  0
   10.8872    6.4419    0.0000 H   0  0  0  0  0  0  0  0  0  0  0  0
    9.7942    4.0950    0.0000 H   0  0  0  0  0  0  0  0  0  0  0  0
   14.3513   -4.5581    0.0000 H   0  0  0  0  0  0  0  0  0  0  0  0
   14.1244   -5.4050    0.0000 H   0  0  0  0  0  0  0  0  0  0  0  0
   14.9713   -5.6319    0.0000 H   0  0  0  0  0  0  0  0  0  0  0  0
   16.0643   -3.2850    0.0000 H   0  0  0  0  0  0  0  0  0  0  0  0
   11.7341    4.2150    0.0000 H   0  0  0  0  0  0  0  0  0  0  0  0
   14.1244   -3.4050    0.0000 H   0  0  0  0  0  0  0  0  0  0  0  0
   10.6603    2.5950    0.0000 H   0  0  0  0  0  0  0  0  0  0  0  0
   15.1982   -1.7850    0.0000 H   0  0  0  0  0  0  0  0  0  0  0  0
   13.2392    2.3681    0.0000 H   0  0  0  0  0  0  0  0  0  0  0  0
   13.4662    3.2150    0.0000 H   0  0  0  0  0  0  0  0  0  0  0  0
   12.6192    3.4419    0.0000 H   0  0  0  0  0  0  0  0  0  0  0  0
   11.5263    1.0950    0.0000 H   0  0  0  0  0  0  0  0  0  0  0  0
   14.3322   -0.2850    0.0000 H   0  0  0  0  0  0  0  0  0  0  0  0
   12.6192   -1.5581    0.0000 H   0  0  0  0  0  0  0  0  0  0  0  0
   12.3923   -2.4050    0.0000 H   0  0  0  0  0  0  0  0  0  0  0  0
   13.2392   -2.6319    0.0000 H   0  0  0  0  0  0  0  0  0  0  0  0
   13.4662    1.2150    0.0000 H   0  0  0  0  0  0  0  0  0  0  0  0
   12.3923   -0.4050    0.0000 H   0  0  0  0  0  0  0  0  0  0  0  0
  1 25  1  0  0  0  0
  1 27  1  0  0  0  0
  2 20  1  0  0  0  0
  2 30  1  0  0  0  0
 25  3  1  1  0  0  0
  3 29  1  0  0  0  0
 21  4  1  1  0  0  0
  4 76  1  0  0  0  0
 22  5  1  6  0  0  0
  5 78  1  0  0  0  0
 23  6  1  1  0  0  0
  6 79  1  0  0  0  0
 24  7  1  6  0  0  0
  7 80  1  0  0  0  0
 26  8  1  6  0  0  0
  8 81  1  0  0  0  0
 28  9  1  1  0  0  0
  9 82  1  0  0  0  0
 30 10  1  6  0  0  0
 10 38  1  0  0  0  0
 11 34  1  0  0  0  0
 11 36  1  0  0  0  0
 12 31  1  0  0  0  0
 12 85  1  0  0  0  0
 32 13  1  6  0  0  0
 13 86  1  0  0  0  0
 33 14  1  1  0  0  0
 14 87  1  0  0  0  0
 35 15  1  6  0  0  0
 15 88  1  0  0  0  0
 36 16  1  1  0  0  0
 16 40  1  0  0  0  0
 17 37  1  0  0  0  0
 17 89  1  0  0  0  0
 18 38  2  0  0  0  0
 19 40  2  0  0  0  0
 20 21  1  0  0  0  0
 20 29  1  6  0  0  0
 20 58  1  0  0  0  0
 21 24  1  0  0  0  0
 21 59  1  0  0  0  0
 22 23  1  0  0  0  0
 22 25  1  0  0  0  0
 22 60  1  0  0  0  0
 23 26  1  0  0  0  0
 23 61  1  0  0  0  0
 24 28  1  0  0  0  0
 24 62  1  0  0  0  0
 25 63  1  0  0  0  0
 26 27  1  0  0  0  0
 26 64  1  0  0  0  0
 27 31  1  1  0  0  0
 27 65  1  0  0  0  0
 28 30  1  0  0  0  0
 28 66  1  0  0  0  0
 29 67  1  0  0  0  0
 29 68  1  0  0  0  0
 30 69  1  0  0  0  0
 31 70  1  0  0  0  0
 31 71  1  0  0  0  0
 32 33  1  0  0  0  0
 32 34  1  0  0  0  0
 32 72  1  0  0  0  0
 33 35  1  0  0  0  0
 33 73  1  0  0  0  0
 34 37  1  1  0  0  0
 34 74  1  0  0  0  0
 35 36  1  0  0  0  0
 35 75  1  0  0  0  0
 36 77  1  0  0  0  0
 37 83  1  0  0  0  0
 37 84  1  0  0  0  0
 38 39  1  0  0  0  0
 39 41  1  0  0  0  0
 39 43  2  0  0  0  0
 40 42  1  0  0  0  0
 41 90  1  0  0  0  0
 41 91  1  0  0  0  0
 41 92  1  0  0  0  0
 42 44  1  0  0  0  0
 42 45  2  0  0  0  0
 43 46  1  0  0  0  0
 43 93  1  0  0  0  0
 44 94  1  0  0  0  0
 44 95  1  0  0  0  0
 44 96  1  0  0  0  0
 45 47  1  0  0  0  0
 45 97  1  0  0  0  0
 46 48  2  0  0  0  0
 46 98  1  0  0  0  0
 47 50  2  0  0  0  0
 47 99  1  0  0  0  0
 48 49  1  0  0  0  0
 48100  1  0  0  0  0
 49 52  1  0  0  0  0
 49 53  2  0  0  0  0
 50 51  1  0  0  0  0
 50101  1  0  0  0  0
 51 54  2  0  0  0  0
 51 55  1  0  0  0  0
 52102  1  0  0  0  0
 52103  1  0  0  0  0
 52104  1  0  0  0  0
 53 56  1  0  0  0  0
 53105  1  0  0  0  0
 54 57  1  0  0  0  0
 54106  1  0  0  0  0
 55107  1  0  0  0  0
 55108  1  0  0  0  0
 55109  1  0  0  0  0
 56 57  2  0  0  0  0
 56110  1  0  0  0  0
 57111  1  0  0  0  0
M  END
> <PUBCHEM_COMPOUND_CID>
9940690

> <PUBCHEM_COMPOUND_CANONICALIZED>
1

> <PUBCHEM_CACTVS_COMPLEXITY>
1550

> <PUBCHEM_CACTVS_HBOND_ACCEPTOR>
19

> <PUBCHEM_CACTVS_HBOND_DONOR>
11

> <PUBCHEM_CACTVS_ROTATABLE_BOND>
17

> <PUBCHEM_CACTVS_SUBSKEYS>
AAADcfB8PgAAAAAAAAAAAAAAAAAAAAAAAAAkSJAAAAAAAAAAAAAAGgAACAAADBSwgAMCCAAABgCIAiDSCAAAAAAgAAAICAEAAEgZFAIAIQAiUAAFAAAPoYPAYAwAAAAAAAAAAAAAAAAAAAAAAAAAAAAAAA==

> <PUBCHEM_IUPAC_OPENEYE_NAME>
O1-[(2R,3R,4S,5S,6R)-3,4,5-trihydroxy-6-(hydroxymethyl)tetrahydropyran-2-yl] O16-[(2S,3R,4S,5S,6R)-3,4,5-trihydroxy-6-[[(2R,3R,4S,5S,6R)-3,4,5-trihydroxy-6-(hydroxymethyl)tetrahydropyran-2-yl]oxymethyl]tetrahydropyran-2-yl] (2E,4E,6E,8E,10E,12E,14E)-2,6,11,15-tetramethylhexadeca-2,4,6,8,10,12,14-heptaenedioate

> <PUBCHEM_IUPAC_CAS_NAME>
(2E,4E,6E,8E,10E,12E,14E)-2,6,11,15-tetramethylhexadeca-2,4,6,8,10,12,14-heptaenedioic acid O1-[(2R,3R,4S,5S,6R)-3,4,5-trihydroxy-6-(hydroxymethyl)-2-oxanyl] ester O16-[(2S,3R,4S,5S,6R)-3,4,5-trihydroxy-6-[[(2R,3R,4S,5S,6R)-3,4,5-trihydroxy-6-(hydroxymethyl)-2-oxanyl]oxymethyl]-2-oxanyl] ester

> <PUBCHEM_IUPAC_NAME_MARKUP>
1-<I>O</I>-[(2<I>R</I>,3<I>R</I>,4<I>S</I>,5<I>S</I>,6<I>R</I>)-3,4,5-trihydroxy-6-(hydroxymethyl)oxan-2-yl] 16-<I>O</I>-[(2<I>S</I>,3<I>R</I>,4<I>S</I>,5<I>S</I>,6<I>R</I>)-3,4,5-trihydroxy-6-[[(2<I>R</I>,3<I>R</I>,4<I>S</I>,5<I>S</I>,6<I>R</I>)-3,4,5-trihydroxy-6-(hydroxymethyl)oxan-2-yl]oxymethyl]oxan-2-yl] (2<I>E</I>,4<I>E</I>,6<I>E</I>,8<I>E</I>,10<I>E</I>,12<I>E</I>,14<I>E</I>)-2,6,11,15-tetramethylhexadeca-2,4,6,8,10,12,14-heptaenedioate

> <PUBCHEM_IUPAC_NAME>
1-O-[(2R,3R,4S,5S,6R)-3,4,5-trihydroxy-6-(hydroxymethyl)oxan-2-yl] 16-O-[(2S,3R,4S,5S,6R)-3,4,5-trihydroxy-6-[[(2R,3R,4S,5S,6R)-3,4,5-trihydroxy-6-(hydroxymethyl)oxan-2-yl]oxymethyl]oxan-2-yl] (2E,4E,6E,8E,10E,12E,14E)-2,6,11,15-tetramethylhexadeca-2,4,6,8,10,12,14-heptaenedioate

> <PUBCHEM_IUPAC_SYSTEMATIC_NAME>
O1-[(2R,3R,4S,5S,6R)-6-(hydroxymethyl)-3,4,5-tris(oxidanyl)oxan-2-yl] O16-[(2S,3R,4S,5S,6R)-6-[[(2R,3R,4S,5S,6R)-6-(hydroxymethyl)-3,4,5-tris(oxidanyl)oxan-2-yl]oxymethyl]-3,4,5-tris(oxidanyl)oxan-2-yl] (2E,4E,6E,8E,10E,12E,14E)-2,6,11,15-tetramethylhexadeca-2,4,6,8,10,12,14-heptaenedioate

> <PUBCHEM_IUPAC_TRADITIONAL_NAME>
(2E,4E,6E,8E,10E,12E,14E)-2,6,11,15-tetramethylhexadeca-2,4,6,8,10,12,14-heptaenedioic acid O1-[(2R,3R,4S,5S,6R)-3,4,5-trihydroxy-6-methylol-tetrahydropyran-2-yl] ester O16-[(2S,3R,4S,5S,6R)-3,4,5-trihydroxy-6-[[(2R,3R,4S,5S,6R)-3,4,5-trihydroxy-6-methylol-tetrahydropyran-2-yl]oxymethyl]tetrahydropyran-2-yl] ester

> <PUBCHEM_IUPAC_INCHI>
InChI=1S/C38H54O19/c1-18(11-7-13-20(3)34(50)56-37-32(48)29(45)26(42)23(16-40)54-37)9-5-6-10-19(2)12-8-14-21(4)35(51)57-38-33(49)30(46)27(43)24(55-38)17-52-36-31(47)28(44)25(41)22(15-39)53-36/h5-14,22-33,36-49H,15-17H2,1-4H3/b6-5+,11-7+,12-8+,18-9+,19-10+,20-13+,21-14+/t22-,23-,24-,25-,26-,27-,28+,29+,30+,31-,32-,33-,36-,37+,38+/m1/s1

> <PUBCHEM_IUPAC_INCHIKEY>
CZSBHMFVVLYIQQ-DRVLGOCHSA-N

> <PUBCHEM_XLOGP3_AA>
-0.3

> <PUBCHEM_EXACT_MASS>
814.32593

> <PUBCHEM_MOLECULAR_FORMULA>
C38H54O19

> <PUBCHEM_MOLECULAR_WEIGHT>
814.8

> <PUBCHEM_OPENEYE_CAN_SMILES>
CC(=CC=CC=C(C)C=CC=C(C)C(=O)OC1C(C(C(C(O1)COC2C(C(C(C(O2)CO)O)O)O)O)O)O)C=CC=C(C)C(=O)OC3C(C(C(C(O3)CO)O)O)O

> <PUBCHEM_OPENEYE_ISO_SMILES>
C/C(=C\C=C\C=C(/C)\C=C\C=C(/C)\C(=O)O[C@H]1[C@@H]([C@H]([C@@H]([C@H](O1)CO[C@H]2[C@@H]([C@H]([C@@H]([C@H](O2)CO)O)O)O)O)O)O)/C=C/C=C(\C)/C(=O)O[C@H]3[C@@H]([C@H]([C@@H]([C@H](O3)CO)O)O)O

> <PUBCHEM_CACTVS_TPSA>
312

> <PUBCHEM_MONOISOTOPIC_WEIGHT>
814.32593

> <PUBCHEM_TOTAL_CHARGE>
0

> <PUBCHEM_HEAVY_ATOM_COUNT>
57

> <PUBCHEM_ATOM_DEF_STEREO_COUNT>
15

> <PUBCHEM_ATOM_UDEF_STEREO_COUNT>
0

> <PUBCHEM_BOND_DEF_STEREO_COUNT>
7

> <PUBCHEM_BOND_UDEF_STEREO_COUNT>
0

> <PUBCHEM_ISOTOPIC_ATOM_COUNT>
0

> <PUBCHEM_COMPONENT_COUNT>
1

> <PUBCHEM_CACTVS_TAUTO_COUNT>
-1

> <PUBCHEM_COORDINATE_TYPE>
1
5
255

> <PUBCHEM_BONDANNOTATIONS>
30  10  6
32  13  6
33  14  5
35  15  6
36  16  5
20  29  6
27  31  5
25  3  5
34  37  5
21  4  5
22  5  6
23  6  5
24  7  6
26  8  6
28  9  5

$$$$
