73425459
  -OEChem-09082009392D

 94100  0     1  0  0  0  0  0999 V2000
    8.8270   -3.6109    0.0000 O   0  0  0  0  0  0  0  0  0  0  0  0
    5.0754    0.4028    0.0000 O   0  0  0  0  0  0  0  0  0  0  0  0
   14.3200   -3.7132    0.0000 O   0  0  0  0  0  0  0  0  0  0  0  0
   10.5483   -4.0721    0.0000 O   0  0  0  0  0  0  0  0  0  0  0  0
    5.3998   -1.7438    0.0000 O   0  0  0  0  0  0  0  0  0  0  0  0
   12.5078   -4.9084    0.0000 O   0  0  0  0  0  0  0  0  0  0  0  0
    7.7700    2.3483    0.0000 O   0  0  0  0  0  0  0  0  0  0  0  0
   13.9628   -0.4089    0.0000 O   0  0  0  0  0  0  0  0  0  0  0  0
    4.5628    4.7634    0.0000 O   0  0  0  0  0  0  0  0  0  0  0  0
   17.9036   -4.6405    0.0000 O   0  0  0  0  0  0  0  0  0  0  0  0
    2.6064    4.3475    0.0000 O   0  0  0  0  0  0  0  0  0  0  0  0
   18.9036   -2.9084    0.0000 O   0  0  0  0  0  0  0  0  0  0  0  0
    8.9961   -2.0017    0.0000 C   0  0  1  0  0  0  0  0  0  0  0  0
    9.9097   -2.4084    0.0000 C   0  0  1  0  0  0  0  0  0  0  0  0
    8.7882   -1.0235    0.0000 C   0  0  0  0  0  0  0  0  0  0  0  0
   10.7757   -1.9084    0.0000 C   0  0  0  0  0  0  0  0  0  0  0  0
    8.3270   -2.7448    0.0000 C   0  0  0  0  0  0  0  0  0  0  0  0
    9.8052   -3.4030    0.0000 C   0  0  0  0  0  0  0  0  0  0  0  0
    7.8372   -0.7145    0.0000 C   0  0  0  0  0  0  0  0  0  0  0  0
    6.2715    1.4797    0.0000 C   0  0  1  0  0  0  0  0  0  0  0  0
   14.3200   -2.1037    0.0000 C   0  0  1  0  0  0  0  0  0  0  0  0
   11.6417   -2.4084    0.0000 C   0  0  0  0  0  0  0  0  0  0  0  0
    6.6782    0.5726    0.0000 C   0  0  0  0  0  0  0  0  0  0  0  0
   13.3738   -2.4084    0.0000 C   0  0  0  0  0  0  0  0  0  0  0  0
    5.2830    1.3750    0.0000 C   0  0  1  0  0  0  0  0  0  0  0  0
   14.9036   -2.9084    0.0000 C   0  0  1  0  0  0  0  0  0  0  0  0
    7.6293    0.2636    0.0000 C   0  0  0  0  0  0  0  0  0  0  0  0
   12.5078   -1.9084    0.0000 C   0  0  0  0  0  0  0  0  0  0  0  0
    5.9351   -0.0965    0.0000 C   0  0  0  0  0  0  0  0  0  0  0  0
   13.3738   -3.4084    0.0000 C   0  0  0  0  0  0  0  0  0  0  0  0
    7.0940   -1.3837    0.0000 C   0  0  0  0  0  0  0  0  0  0  0  0
   11.6417   -3.4084    0.0000 C   0  0  0  0  0  0  0  0  0  0  0  0
    6.1430   -1.0746    0.0000 C   0  0  0  0  0  0  0  0  0  0  0  0
    6.7700    2.3466    0.0000 C   0  0  0  0  0  0  0  0  0  0  0  0
   12.5078   -3.9084    0.0000 C   0  0  0  0  0  0  0  0  0  0  0  0
   14.6307   -1.1532    0.0000 C   0  0  0  0  0  0  0  0  0  0  0  0
    4.6138    2.1181    0.0000 C   0  0  0  0  0  0  0  0  0  0  0  0
   15.9036   -2.9084    0.0000 C   0  0  0  0  0  0  0  0  0  0  0  0
    4.9229    3.0692    0.0000 C   0  0  0  0  0  0  0  0  0  0  0  0
    3.6357    1.9102    0.0000 C   0  0  0  0  0  0  0  0  0  0  0  0
   16.4036   -3.7744    0.0000 C   0  0  0  0  0  0  0  0  0  0  0  0
   16.4036   -2.0424    0.0000 C   0  0  0  0  0  0  0  0  0  0  0  0
    4.2537    3.8123    0.0000 C   0  0  0  0  0  0  0  0  0  0  0  0
   17.4036   -3.7744    0.0000 C   0  0  0  0  0  0  0  0  0  0  0  0
    2.9666    2.6533    0.0000 C   0  0  0  0  0  0  0  0  0  0  0  0
   17.4036   -2.0424    0.0000 C   0  0  0  0  0  0  0  0  0  0  0  0
    3.2756    3.6044    0.0000 C   0  0  0  0  0  0  0  0  0  0  0  0
   17.9036   -2.9084    0.0000 C   0  0  0  0  0  0  0  0  0  0  0  0
    5.6077   -2.7219    0.0000 C   0  0  0  0  0  0  0  0  0  0  0  0
   11.6417   -5.4084    0.0000 C   0  0  0  0  0  0  0  0  0  0  0  0
    3.8936    5.5065    0.0000 C   0  0  0  0  0  0  0  0  0  0  0  0
   17.4036   -5.5065    0.0000 C   0  0  0  0  0  0  0  0  0  0  0  0
    8.3973   -1.8412    0.0000 H   0  0  0  0  0  0  0  0  0  0  0  0
    9.8772   -1.7893    0.0000 H   0  0  0  0  0  0  0  0  0  0  0  0
    9.4078   -1.0019    0.0000 H   0  0  0  0  0  0  0  0  0  0  0  0
    8.8745   -0.4096    0.0000 H   0  0  0  0  0  0  0  0  0  0  0  0
   11.1742   -1.4335    0.0000 H   0  0  0  0  0  0  0  0  0  0  0  0
   10.3772   -1.4335    0.0000 H   0  0  0  0  0  0  0  0  0  0  0  0
    7.9122   -2.2841    0.0000 H   0  0  0  0  0  0  0  0  0  0  0  0
    7.8254   -3.1093    0.0000 H   0  0  0  0  0  0  0  0  0  0  0  0
    5.9332    1.9993    0.0000 H   0  0  0  0  0  0  0  0  0  0  0  0
   13.8825   -1.6643    0.0000 H   0  0  0  0  0  0  0  0  0  0  0  0
    4.6840    1.2148    0.0000 H   0  0  0  0  0  0  0  0  0  0  0  0
   15.1853   -3.4607    0.0000 H   0  0  0  0  0  0  0  0  0  0  0  0
    8.0900    0.6785    0.0000 H   0  0  0  0  0  0  0  0  0  0  0  0
   12.5078   -1.2884    0.0000 H   0  0  0  0  0  0  0  0  0  0  0  0
    7.2229   -1.9901    0.0000 H   0  0  0  0  0  0  0  0  0  0  0  0
   11.1048   -3.7184    0.0000 H   0  0  0  0  0  0  0  0  0  0  0  0
    6.8766    2.9574    0.0000 H   0  0  0  0  0  0  0  0  0  0  0  0
    6.1870    2.5577    0.0000 H   0  0  0  0  0  0  0  0  0  0  0  0
   15.1776   -1.4452    0.0000 H   0  0  0  0  0  0  0  0  0  0  0  0
   15.0132   -0.6653    0.0000 H   0  0  0  0  0  0  0  0  0  0  0  0
    5.5293    3.1981    0.0000 H   0  0  0  0  0  0  0  0  0  0  0  0
    3.4441    1.3205    0.0000 H   0  0  0  0  0  0  0  0  0  0  0  0
   16.0936   -4.3114    0.0000 H   0  0  0  0  0  0  0  0  0  0  0  0
   16.0936   -1.5055    0.0000 H   0  0  0  0  0  0  0  0  0  0  0  0
    8.0791    2.8858    0.0000 H   0  0  0  0  0  0  0  0  0  0  0  0
   14.1554    0.1804    0.0000 H   0  0  0  0  0  0  0  0  0  0  0  0
    2.3601    2.5244    0.0000 H   0  0  0  0  0  0  0  0  0  0  0  0
   17.7136   -1.5055    0.0000 H   0  0  0  0  0  0  0  0  0  0  0  0
    5.0013   -2.8508    0.0000 H   0  0  0  0  0  0  0  0  0  0  0  0
    5.7366   -3.3284    0.0000 H   0  0  0  0  0  0  0  0  0  0  0  0
    6.2142   -2.5930    0.0000 H   0  0  0  0  0  0  0  0  0  0  0  0
   11.3317   -4.8715    0.0000 H   0  0  0  0  0  0  0  0  0  0  0  0
   11.1048   -5.7184    0.0000 H   0  0  0  0  0  0  0  0  0  0  0  0
   11.9517   -5.9454    0.0000 H   0  0  0  0  0  0  0  0  0  0  0  0
    2.0000    4.2186    0.0000 H   0  0  0  0  0  0  0  0  0  0  0  0
   19.2136   -2.3715    0.0000 H   0  0  0  0  0  0  0  0  0  0  0  0
    4.3544    5.9214    0.0000 H   0  0  0  0  0  0  0  0  0  0  0  0
    3.4788    5.9672    0.0000 H   0  0  0  0  0  0  0  0  0  0  0  0
    3.4329    5.0916    0.0000 H   0  0  0  0  0  0  0  0  0  0  0  0
   16.8667   -5.1965    0.0000 H   0  0  0  0  0  0  0  0  0  0  0  0
   17.0936   -6.0434    0.0000 H   0  0  0  0  0  0  0  0  0  0  0  0
   17.9405   -5.8165    0.0000 H   0  0  0  0  0  0  0  0  0  0  0  0
  1 17  1  0  0  0  0
  1 18  1  0  0  0  0
  2 25  1  0  0  0  0
  2 29  1  0  0  0  0
  3 26  1  0  0  0  0
  3 30  1  0  0  0  0
  4 18  2  0  0  0  0
  5 33  1  0  0  0  0
  5 49  1  0  0  0  0
  6 35  1  0  0  0  0
  6 50  1  0  0  0  0
  7 34  1  0  0  0  0
  7 77  1  0  0  0  0
  8 36  1  0  0  0  0
  8 78  1  0  0  0  0
  9 43  1  0  0  0  0
  9 51  1  0  0  0  0
 10 44  1  0  0  0  0
 10 52  1  0  0  0  0
 11 47  1  0  0  0  0
 11 87  1  0  0  0  0
 12 48  1  0  0  0  0
 12 88  1  0  0  0  0
 13 14  1  0  0  0  0
 13 15  1  6  0  0  0
 13 17  1  0  0  0  0
 13 53  1  0  0  0  0
 14 16  1  1  0  0  0
 14 18  1  0  0  0  0
 14 54  1  0  0  0  0
 15 19  1  0  0  0  0
 15 55  1  0  0  0  0
 15 56  1  0  0  0  0
 16 22  1  0  0  0  0
 16 57  1  0  0  0  0
 16 58  1  0  0  0  0
 17 59  1  0  0  0  0
 17 60  1  0  0  0  0
 19 27  2  0  0  0  0
 19 31  1  0  0  0  0
 20 23  1  0  0  0  0
 20 25  1  0  0  0  0
 20 34  1  1  0  0  0
 20 61  1  0  0  0  0
 21 24  1  0  0  0  0
 21 26  1  0  0  0  0
 21 36  1  6  0  0  0
 21 62  1  0  0  0  0
 22 28  2  0  0  0  0
 22 32  1  0  0  0  0
 23 27  1  0  0  0  0
 23 29  2  0  0  0  0
 24 28  1  0  0  0  0
 24 30  2  0  0  0  0
 25 37  1  6  0  0  0
 25 63  1  0  0  0  0
 26 38  1  1  0  0  0
 26 64  1  0  0  0  0
 27 65  1  0  0  0  0
 28 66  1  0  0  0  0
 29 33  1  0  0  0  0
 30 35  1  0  0  0  0
 31 33  2  0  0  0  0
 31 67  1  0  0  0  0
 32 35  2  0  0  0  0
 32 68  1  0  0  0  0
 34 69  1  0  0  0  0
 34 70  1  0  0  0  0
 36 71  1  0  0  0  0
 36 72  1  0  0  0  0
 37 39  2  0  0  0  0
 37 40  1  0  0  0  0
 38 41  2  0  0  0  0
 38 42  1  0  0  0  0
 39 43  1  0  0  0  0
 39 73  1  0  0  0  0
 40 45  2  0  0  0  0
 40 74  1  0  0  0  0
 41 44  1  0  0  0  0
 41 75  1  0  0  0  0
 42 46  2  0  0  0  0
 42 76  1  0  0  0  0
 43 47  2  0  0  0  0
 44 48  2  0  0  0  0
 45 47  1  0  0  0  0
 45 79  1  0  0  0  0
 46 48  1  0  0  0  0
 46 80  1  0  0  0  0
 49 81  1  0  0  0  0
 49 82  1  0  0  0  0
 49 83  1  0  0  0  0
 50 84  1  0  0  0  0
 50 85  1  0  0  0  0
 50 86  1  0  0  0  0
 51 89  1  0  0  0  0
 51 90  1  0  0  0  0
 51 91  1  0  0  0  0
 52 92  1  0  0  0  0
 52 93  1  0  0  0  0
 52 94  1  0  0  0  0
M  END
> <PUBCHEM_COMPOUND_CID>
73425459

> <PUBCHEM_COMPOUND_CANONICALIZED>
1

> <PUBCHEM_CACTVS_COMPLEXITY>
1170

> <PUBCHEM_CACTVS_HBOND_ACCEPTOR>
12

> <PUBCHEM_CACTVS_HBOND_DONOR>
4

> <PUBCHEM_CACTVS_ROTATABLE_BOND>
12

> <PUBCHEM_CACTVS_SUBSKEYS>
AAADcfB8PAAAAAAAAAAAAAAAAAAAASJEgAAwYMGAAAAAAEgBVAAAGgAACAAADRSgmAIyDoAABgCIAiDSCAACCAAgIAAIiAEGiIgNNjKGMRqCeCOlwBELuAfK6PyOoAADAAAIQABAAAYAABCAAAAAAAAAAA==

> <PUBCHEM_IUPAC_OPENEYE_NAME>
(3R,4R)-3,4-bis[[(2S,3R)-2-(4-hydroxy-3-methoxy-phenyl)-3-(hydroxymethyl)-7-methoxy-2,3-dihydrobenzofuran-5-yl]methyl]tetrahydrofuran-2-one

> <PUBCHEM_IUPAC_CAS_NAME>
(3R,4R)-3,4-bis[[(2S,3R)-2-(4-hydroxy-3-methoxyphenyl)-3-(hydroxymethyl)-7-methoxy-2,3-dihydrobenzofuran-5-yl]methyl]-2-oxolanone

> <PUBCHEM_IUPAC_NAME_MARKUP>
(3<I>R</I>,4<I>R</I>)-3,4-bis[[(2<I>S</I>,3<I>R</I>)-2-(4-hydroxy-3-methoxyphenyl)-3-(hydroxymethyl)-7-methoxy-2,3-dihydro-1-benzofuran-5-yl]methyl]oxolan-2-one

> <PUBCHEM_IUPAC_NAME>
(3R,4R)-3,4-bis[[(2S,3R)-2-(4-hydroxy-3-methoxyphenyl)-3-(hydroxymethyl)-7-methoxy-2,3-dihydro-1-benzofuran-5-yl]methyl]oxolan-2-one

> <PUBCHEM_IUPAC_SYSTEMATIC_NAME>
(3R,4R)-3,4-bis[[(2S,3R)-3-(hydroxymethyl)-7-methoxy-2-(3-methoxy-4-oxidanyl-phenyl)-2,3-dihydro-1-benzofuran-5-yl]methyl]oxolan-2-one

> <PUBCHEM_IUPAC_TRADITIONAL_NAME>
(3R,4R)-3,4-bis[[(2S,3R)-2-(4-hydroxy-3-methoxy-phenyl)-7-methoxy-3-methylol-coumaran-5-yl]methyl]tetrahydrofuran-2-one

> <PUBCHEM_IUPAC_INCHI>
InChI=1S/C40H42O12/c1-46-32-15-22(5-7-30(32)43)36-28(17-41)26-11-20(13-34(48-3)38(26)51-36)9-24-19-50-40(45)25(24)10-21-12-27-29(18-42)37(52-39(27)35(14-21)49-4)23-6-8-31(44)33(16-23)47-2/h5-8,11-16,24-25,28-29,36-37,41-44H,9-10,17-19H2,1-4H3/t24-,25+,28-,29-,36+,37+/m0/s1

> <PUBCHEM_IUPAC_INCHIKEY>
YXNKOCZXAVTXTG-NYGVLQSXSA-N

> <PUBCHEM_XLOGP3_AA>
4.5

> <PUBCHEM_EXACT_MASS>
714.267627

> <PUBCHEM_MOLECULAR_FORMULA>
C40H42O12

> <PUBCHEM_MOLECULAR_WEIGHT>
714.8

> <PUBCHEM_OPENEYE_CAN_SMILES>
COC1=CC(=CC2=C1OC(C2CO)C3=CC(=C(C=C3)O)OC)CC4COC(=O)C4CC5=CC6=C(C(=C5)OC)OC(C6CO)C7=CC(=C(C=C7)O)OC

> <PUBCHEM_OPENEYE_ISO_SMILES>
COC1=CC(=CC2=C1O[C@@H]([C@H]2CO)C3=CC(=C(C=C3)O)OC)C[C@H]4COC(=O)[C@@H]4CC5=CC6=C(C(=C5)OC)O[C@@H]([C@H]6CO)C7=CC(=C(C=C7)O)OC

> <PUBCHEM_CACTVS_TPSA>
163

> <PUBCHEM_MONOISOTOPIC_WEIGHT>
714.267627

> <PUBCHEM_TOTAL_CHARGE>
0

> <PUBCHEM_HEAVY_ATOM_COUNT>
52

> <PUBCHEM_ATOM_DEF_STEREO_COUNT>
6

> <PUBCHEM_ATOM_UDEF_STEREO_COUNT>
0

> <PUBCHEM_BOND_DEF_STEREO_COUNT>
0

> <PUBCHEM_BOND_UDEF_STEREO_COUNT>
0

> <PUBCHEM_ISOTOPIC_ATOM_COUNT>
0

> <PUBCHEM_COMPONENT_COUNT>
1

> <PUBCHEM_CACTVS_TAUTO_COUNT>
-1

> <PUBCHEM_COORDINATE_TYPE>
1
5
255

> <PUBCHEM_BONDANNOTATIONS>
13  15  6
14  16  5
19  27  8
19  31  8
20  34  5
21  36  6
22  28  8
22  32  8
23  27  8
23  29  8
24  28  8
24  30  8
25  37  6
26  38  5
29  33  8
30  35  8
31  33  8
32  35  8
37  39  8
37  40  8
38  41  8
38  42  8
39  43  8
40  45  8
41  44  8
42  46  8
43  47  8
44  48  8
45  47  8
46  48  8

$$$$
