24847856
  -OEChem-09082011142D

 70 72  0     1  0  0  0  0  0999 V2000
   10.3312   -0.4050    0.0000 O   0  0  0  0  0  0  0  0  0  0  0  0
    8.5991   -0.4050    0.0000 O   0  0  0  0  0  0  0  0  0  0  0  0
   10.3312    2.5950    0.0000 O   0  0  0  0  0  0  0  0  0  0  0  0
    8.5991   -3.4050    0.0000 O   0  0  0  0  0  0  0  0  0  0  0  0
    6.0010   -0.9050    0.0000 O   0  0  0  0  0  0  0  0  0  0  0  0
   10.3312   -2.4050    0.0000 O   0  0  0  0  0  0  0  0  0  0  0  0
   12.0632    0.5950    0.0000 O   0  0  0  0  0  0  0  0  0  0  0  0
    8.5991    0.5950    0.0000 O   0  0  0  0  0  0  0  0  0  0  0  0
    6.8671   -2.4050    0.0000 O   0  0  0  0  0  0  0  0  0  0  0  0
    4.2690   -0.9050    0.0000 O   0  0  0  0  0  0  0  0  0  0  0  0
   12.0632    3.5950    0.0000 O   0  0  0  0  0  0  0  0  0  0  0  0
    4.2690    2.0950    0.0000 O   0  0  0  0  0  0  0  0  0  0  0  0
    6.0010    1.0950    0.0000 O   0  0  0  0  0  0  0  0  0  0  0  0
    2.5369    1.0950    0.0000 O   0  0  0  0  0  0  0  0  0  0  0  0
   10.3312    0.5950    0.0000 C   0  0  3  0  0  0  0  0  0  0  0  0
    9.4651   -0.9050    0.0000 C   0  0  3  0  0  0  0  0  0  0  0  0
    9.4651   -1.9050    0.0000 C   0  0  3  0  0  0  0  0  0  0  0  0
    8.5991   -2.4050    0.0000 C   0  0  3  0  0  0  0  0  0  0  0  0
   11.1972    1.0950    0.0000 C   0  0  3  0  0  0  0  0  0  0  0  0
    9.4651    1.0950    0.0000 C   0  0  3  0  0  0  0  0  0  0  0  0
    7.7331   -1.9050    0.0000 C   0  0  3  0  0  0  0  0  0  0  0  0
    7.7331   -0.9050    0.0000 C   0  0  3  0  0  0  0  0  0  0  0  0
   11.1972    2.0950    0.0000 C   0  0  3  0  0  0  0  0  0  0  0  0
    9.4651    2.0950    0.0000 C   0  0  3  0  0  0  0  0  0  0  0  0
    6.8671   -0.4050    0.0000 C   0  0  0  0  0  0  0  0  0  0  0  0
   12.0632    2.5950    0.0000 C   0  0  0  0  0  0  0  0  0  0  0  0
    5.1350   -0.4050    0.0000 C   0  0  3  0  0  0  0  0  0  0  0  0
    8.5991    2.5950    0.0000 C   0  0  0  0  0  0  0  0  0  0  0  0
    5.1350    0.5950    0.0000 C   0  0  3  0  0  0  0  0  0  0  0  0
    4.2690    1.0950    0.0000 C   0  0  3  0  0  0  0  0  0  0  0  0
    3.4030    0.5950    0.0000 C   0  0  3  0  0  0  0  0  0  0  0  0
    3.4030   -0.4050    0.0000 C   0  0  0  0  0  0  0  0  0  0  0  0
    7.7331   -3.9050    0.0000 C   0  0  0  0  0  0  0  0  0  0  0  0
    3.4030    2.5950    0.0000 C   0  0  0  0  0  0  0  0  0  0  0  0
   10.8681    0.2850    0.0000 H   0  0  0  0  0  0  0  0  0  0  0  0
   10.0021   -1.2150    0.0000 H   0  0  0  0  0  0  0  0  0  0  0  0
    9.4651   -2.5250    0.0000 H   0  0  0  0  0  0  0  0  0  0  0  0
    9.1360   -2.7150    0.0000 H   0  0  0  0  0  0  0  0  0  0  0  0
   11.7341    1.4050    0.0000 H   0  0  0  0  0  0  0  0  0  0  0  0
    9.4651    0.4750    0.0000 H   0  0  0  0  0  0  0  0  0  0  0  0
    7.7331   -2.5250    0.0000 H   0  0  0  0  0  0  0  0  0  0  0  0
    7.7331   -0.2850    0.0000 H   0  0  0  0  0  0  0  0  0  0  0  0
   11.1972    2.7150    0.0000 H   0  0  0  0  0  0  0  0  0  0  0  0
    9.4651    2.7150    0.0000 H   0  0  0  0  0  0  0  0  0  0  0  0
    7.2656    0.0699    0.0000 H   0  0  0  0  0  0  0  0  0  0  0  0
    6.4685    0.0699    0.0000 H   0  0  0  0  0  0  0  0  0  0  0  0
   12.2753    2.0124    0.0000 H   0  0  0  0  0  0  0  0  0  0  0  0
   12.6738    2.7027    0.0000 H   0  0  0  0  0  0  0  0  0  0  0  0
    5.6720   -0.0950    0.0000 H   0  0  0  0  0  0  0  0  0  0  0  0
    8.9091    3.1319    0.0000 H   0  0  0  0  0  0  0  0  0  0  0  0
    8.0622    2.9050    0.0000 H   0  0  0  0  0  0  0  0  0  0  0  0
    8.2891    2.0581    0.0000 H   0  0  0  0  0  0  0  0  0  0  0  0
    5.1350    1.2150    0.0000 H   0  0  0  0  0  0  0  0  0  0  0  0
    3.7320    1.4050    0.0000 H   0  0  0  0  0  0  0  0  0  0  0  0
    3.9399    0.2850    0.0000 H   0  0  0  0  0  0  0  0  0  0  0  0
   10.3312   -3.0250    0.0000 H   0  0  0  0  0  0  0  0  0  0  0  0
   12.6002    0.9050    0.0000 H   0  0  0  0  0  0  0  0  0  0  0  0
    8.0622    0.9050    0.0000 H   0  0  0  0  0  0  0  0  0  0  0  0
    6.3301   -2.0950    0.0000 H   0  0  0  0  0  0  0  0  0  0  0  0
    2.7924   -0.2973    0.0000 H   0  0  0  0  0  0  0  0  0  0  0  0
    3.1909   -0.9876    0.0000 H   0  0  0  0  0  0  0  0  0  0  0  0
    7.4231   -3.3681    0.0000 H   0  0  0  0  0  0  0  0  0  0  0  0
    7.1962   -4.2150    0.0000 H   0  0  0  0  0  0  0  0  0  0  0  0
    8.0431   -4.4419    0.0000 H   0  0  0  0  0  0  0  0  0  0  0  0
   12.6002    3.9050    0.0000 H   0  0  0  0  0  0  0  0  0  0  0  0
    6.0010    1.7150    0.0000 H   0  0  0  0  0  0  0  0  0  0  0  0
    2.0000    0.7850    0.0000 H   0  0  0  0  0  0  0  0  0  0  0  0
    3.7130    3.1319    0.0000 H   0  0  0  0  0  0  0  0  0  0  0  0
    2.8660    2.9050    0.0000 H   0  0  0  0  0  0  0  0  0  0  0  0
    3.0930    2.0581    0.0000 H   0  0  0  0  0  0  0  0  0  0  0  0
  1 15  1  0  0  0  0
  1 16  1  0  0  0  0
  2 16  1  0  0  0  0
  2 22  1  0  0  0  0
  3 23  1  0  0  0  0
  3 24  1  0  0  0  0
  4 18  1  0  0  0  0
  4 33  1  0  0  0  0
  5 25  1  0  0  0  0
  5 27  1  0  0  0  0
  6 17  1  0  0  0  0
  6 56  1  0  0  0  0
  7 19  1  0  0  0  0
  7 57  1  0  0  0  0
  8 20  1  0  0  0  0
  8 58  1  0  0  0  0
  9 21  1  0  0  0  0
  9 59  1  0  0  0  0
 10 27  1  0  0  0  0
 10 32  1  0  0  0  0
 11 26  1  0  0  0  0
 11 65  1  0  0  0  0
 12 30  1  0  0  0  0
 12 34  1  0  0  0  0
 13 29  1  0  0  0  0
 13 66  1  0  0  0  0
 14 31  1  0  0  0  0
 14 67  1  0  0  0  0
 15 19  1  0  0  0  0
 15 20  1  0  0  0  0
 15 35  1  0  0  0  0
 16 17  1  0  0  0  0
 16 36  1  0  0  0  0
 17 18  1  0  0  0  0
 17 37  1  0  0  0  0
 18 21  1  0  0  0  0
 18 38  1  0  0  0  0
 19 23  1  0  0  0  0
 19 39  1  0  0  0  0
 20 24  1  0  0  0  0
 20 40  1  0  0  0  0
 21 22  1  0  0  0  0
 21 41  1  0  0  0  0
 22 25  1  0  0  0  0
 22 42  1  0  0  0  0
 23 26  1  0  0  0  0
 23 43  1  0  0  0  0
 24 28  1  0  0  0  0
 24 44  1  0  0  0  0
 25 45  1  0  0  0  0
 25 46  1  0  0  0  0
 26 47  1  0  0  0  0
 26 48  1  0  0  0  0
 27 29  1  0  0  0  0
 27 49  1  0  0  0  0
 28 50  1  0  0  0  0
 28 51  1  0  0  0  0
 28 52  1  0  0  0  0
 29 30  1  0  0  0  0
 29 53  1  0  0  0  0
 30 31  1  0  0  0  0
 30 54  1  0  0  0  0
 31 32  1  0  0  0  0
 31 55  1  0  0  0  0
 32 60  1  0  0  0  0
 32 61  1  0  0  0  0
 33 62  1  0  0  0  0
 33 63  1  0  0  0  0
 33 64  1  0  0  0  0
 34 68  1  0  0  0  0
 34 69  1  0  0  0  0
 34 70  1  0  0  0  0
M  END
> <PUBCHEM_COMPOUND_CID>
24847856

> <PUBCHEM_COMPOUND_CANONICALIZED>
1

> <PUBCHEM_CACTVS_COMPLEXITY>
626

> <PUBCHEM_CACTVS_HBOND_ACCEPTOR>
14

> <PUBCHEM_CACTVS_HBOND_DONOR>
7

> <PUBCHEM_CACTVS_ROTATABLE_BOND>
8

> <PUBCHEM_CACTVS_SUBSKEYS>
AAADcfB4PAAAAAAAAAAAAAAAAAAAAAAAAAAkSJAAAAAAAAAAAAAAGgAACAAACBSwgAMCCAAABgAAAAAAAAAAAAAAAAAAAAAAAAAREAIAAAAiQAAFAAAHAAHA4CwAAAAAAAAAAAAAAAAAAAAAAAAAAAAAAA==

> <PUBCHEM_IUPAC_OPENEYE_NAME>
4-[6-[(3,5-dihydroxy-4-methoxy-tetrahydropyran-2-yl)oxymethyl]-3,5-dihydroxy-4-methoxy-tetrahydropyran-2-yl]oxy-2-(hydroxymethyl)-6-methyl-tetrahydropyran-3,5-diol

> <PUBCHEM_IUPAC_CAS_NAME>
4-[[6-[(3,5-dihydroxy-4-methoxy-2-oxanyl)oxymethyl]-3,5-dihydroxy-4-methoxy-2-oxanyl]oxy]-2-(hydroxymethyl)-6-methyloxane-3,5-diol

> <PUBCHEM_IUPAC_NAME_MARKUP>
4-[6-[(3,5-dihydroxy-4-methoxyoxan-2-yl)oxymethyl]-3,5-dihydroxy-4-methoxyoxan-2-yl]oxy-2-(hydroxymethyl)-6-methyloxane-3,5-diol

> <PUBCHEM_IUPAC_NAME>
4-[6-[(3,5-dihydroxy-4-methoxyoxan-2-yl)oxymethyl]-3,5-dihydroxy-4-methoxyoxan-2-yl]oxy-2-(hydroxymethyl)-6-methyloxane-3,5-diol

> <PUBCHEM_IUPAC_SYSTEMATIC_NAME>
2-(hydroxymethyl)-4-[4-methoxy-6-[[4-methoxy-3,5-bis(oxidanyl)oxan-2-yl]oxymethyl]-3,5-bis(oxidanyl)oxan-2-yl]oxy-6-methyl-oxane-3,5-diol

> <PUBCHEM_IUPAC_TRADITIONAL_NAME>
4-[6-[(3,5-dihydroxy-4-methoxy-tetrahydropyran-2-yl)oxymethyl]-3,5-dihydroxy-4-methoxy-tetrahydropyran-2-yl]oxy-2-methyl-6-methylol-tetrahydropyran-3,5-diol

> <PUBCHEM_IUPAC_INCHI>
InChI=1S/C20H36O14/c1-7-11(23)18(12(24)9(4-21)32-7)34-20-15(27)17(29-3)13(25)10(33-20)6-31-19-14(26)16(28-2)8(22)5-30-19/h7-27H,4-6H2,1-3H3

> <PUBCHEM_IUPAC_INCHIKEY>
SATHPVQTSSUFFW-UHFFFAOYSA-N

> <PUBCHEM_XLOGP3_AA>
-4.2

> <PUBCHEM_EXACT_MASS>
500.210506

> <PUBCHEM_MOLECULAR_FORMULA>
C20H36O14

> <PUBCHEM_MOLECULAR_WEIGHT>
500.5

> <PUBCHEM_OPENEYE_CAN_SMILES>
CC1C(C(C(C(O1)CO)O)OC2C(C(C(C(O2)COC3C(C(C(CO3)O)OC)O)O)OC)O)O

> <PUBCHEM_OPENEYE_ISO_SMILES>
CC1C(C(C(C(O1)CO)O)OC2C(C(C(C(O2)COC3C(C(C(CO3)O)OC)O)O)OC)O)O

> <PUBCHEM_CACTVS_TPSA>
206

> <PUBCHEM_MONOISOTOPIC_WEIGHT>
500.210506

> <PUBCHEM_TOTAL_CHARGE>
0

> <PUBCHEM_HEAVY_ATOM_COUNT>
34

> <PUBCHEM_ATOM_DEF_STEREO_COUNT>
0

> <PUBCHEM_ATOM_UDEF_STEREO_COUNT>
14

> <PUBCHEM_BOND_DEF_STEREO_COUNT>
0

> <PUBCHEM_BOND_UDEF_STEREO_COUNT>
0

> <PUBCHEM_ISOTOPIC_ATOM_COUNT>
0

> <PUBCHEM_COMPONENT_COUNT>
1

> <PUBCHEM_CACTVS_TAUTO_COUNT>
-1

> <PUBCHEM_COORDINATE_TYPE>
1
5
255

> <PUBCHEM_BONDANNOTATIONS>
15  1  3
16  1  3
30  12  3
29  13  3
31  14  3
22  25  3
23  26  3
24  28  3
18  4  3
27  5  3
17  6  3
19  7  3
20  8  3
21  9  3

$$$$
