16215736
  -OEChem-09082009162D

100105  0     1  0  0  0  0  0999 V2000
    8.1837    4.8843    0.0000 O   0  0  0  0  0  0  0  0  0  0  0  0
   11.6478   -5.1934    0.0000 O   0  0  0  0  0  0  0  0  0  0  0  0
    9.4438    3.6243    0.0000 O   0  0  0  0  0  0  0  0  0  0  0  0
   12.9079   -3.9333    0.0000 O   0  0  0  0  0  0  0  0  0  0  0  0
   11.1478    2.3455    0.0000 O   0  0  0  0  0  0  0  0  0  0  0  0
    7.6837   -2.6545    0.0000 O   0  0  0  0  0  0  0  0  0  0  0  0
   11.1478    0.3455    0.0000 O   0  0  0  0  0  0  0  0  0  0  0  0
    7.6837   -0.6545    0.0000 O   0  0  0  0  0  0  0  0  0  0  0  0
    4.8532    6.9188    0.0000 O   0  0  0  0  0  0  0  0  0  0  0  0
    5.9993   -4.6535    0.0000 O   0  0  0  0  0  0  0  0  0  0  0  0
    2.9511    6.3008    0.0000 O   0  0  0  0  0  0  0  0  0  0  0  0
    6.4152   -6.6098    0.0000 O   0  0  0  0  0  0  0  0  0  0  0  0
    6.8747    3.9333    0.0000 C   0  0  2  0  0  0  0  0  0  0  0  0
   10.3388   -4.2423    0.0000 C   0  0  2  0  0  0  0  0  0  0  0  0
    7.6837    3.3455    0.0000 C   0  0  1  0  0  0  0  0  0  0  0  0
   11.1478   -3.6545    0.0000 C   0  0  1  0  0  0  0  0  0  0  0  0
    7.1837    4.8843    0.0000 C   0  0  0  0  0  0  0  0  0  0  0  0
   10.6478   -5.1934    0.0000 C   0  0  0  0  0  0  0  0  0  0  0  0
    7.6837    2.3455    0.0000 C   0  0  0  0  0  0  0  0  0  0  0  0
   11.1478   -2.6545    0.0000 C   0  0  0  0  0  0  0  0  0  0  0  0
    5.9236    3.6243    0.0000 C   0  0  0  0  0  0  0  0  0  0  0  0
    9.3877   -3.9333    0.0000 C   0  0  0  0  0  0  0  0  0  0  0  0
    8.4927    3.9333    0.0000 C   0  0  0  0  0  0  0  0  0  0  0  0
   11.9568   -4.2423    0.0000 C   0  0  0  0  0  0  0  0  0  0  0  0
    8.5497    1.8455    0.0000 C   0  0  0  0  0  0  0  0  0  0  0  0
   10.2818   -2.1545    0.0000 C   0  0  0  0  0  0  0  0  0  0  0  0
    5.1805    4.2934    0.0000 C   0  0  0  0  0  0  0  0  0  0  0  0
    8.6446   -4.6024    0.0000 C   0  0  0  0  0  0  0  0  0  0  0  0
    8.5497    0.8455    0.0000 C   0  0  0  0  0  0  0  0  0  0  0  0
   10.2818   -1.1545    0.0000 C   0  0  0  0  0  0  0  0  0  0  0  0
    9.4158    0.3455    0.0000 C   0  0  0  0  0  0  0  0  0  0  0  0
    9.4158   -0.6545    0.0000 C   0  0  0  0  0  0  0  0  0  0  0  0
    9.4158    2.3455    0.0000 C   0  0  0  0  0  0  0  0  0  0  0  0
    9.4158   -2.6545    0.0000 C   0  0  0  0  0  0  0  0  0  0  0  0
    5.3884    5.2715    0.0000 C   0  0  0  0  0  0  0  0  0  0  0  0
    7.6935   -4.2934    0.0000 C   0  0  0  0  0  0  0  0  0  0  0  0
    4.2294    3.9844    0.0000 C   0  0  0  0  0  0  0  0  0  0  0  0
    8.8525   -5.5806    0.0000 C   0  0  0  0  0  0  0  0  0  0  0  0
   10.2818    0.8455    0.0000 C   0  0  0  0  0  0  0  0  0  0  0  0
    8.5497   -1.1545    0.0000 C   0  0  0  0  0  0  0  0  0  0  0  0
   10.2818    1.8455    0.0000 C   0  0  0  0  0  0  0  0  0  0  0  0
    8.5497   -2.1545    0.0000 C   0  0  0  0  0  0  0  0  0  0  0  0
    4.6453    5.9407    0.0000 C   0  0  0  0  0  0  0  0  0  0  0  0
    6.9504   -4.9625    0.0000 C   0  0  0  0  0  0  0  0  0  0  0  0
    3.4863    4.6535    0.0000 C   0  0  0  0  0  0  0  0  0  0  0  0
    8.1094   -6.2497    0.0000 C   0  0  0  0  0  0  0  0  0  0  0  0
    3.6942    5.6316    0.0000 C   0  0  0  0  0  0  0  0  0  0  0  0
    7.1583   -5.9407    0.0000 C   0  0  0  0  0  0  0  0  0  0  0  0
   11.1478    3.3455    0.0000 C   0  0  0  0  0  0  0  0  0  0  0  0
    7.6837   -3.6545    0.0000 C   0  0  0  0  0  0  0  0  0  0  0  0
    4.1100    7.5880    0.0000 C   0  0  0  0  0  0  0  0  0  0  0  0
    5.2562   -5.3226    0.0000 C   0  0  0  0  0  0  0  0  0  0  0  0
    2.0000    5.9918    0.0000 C   0  0  0  0  0  0  0  0  0  0  0  0
    6.6231   -7.5880    0.0000 C   0  0  0  0  0  0  0  0  0  0  0  0
    6.7777    3.3209    0.0000 H   0  0  0  0  0  0  0  0  0  0  0  0
    9.9004   -4.6807    0.0000 H   0  0  0  0  0  0  0  0  0  0  0  0
    7.1313    3.0640    0.0000 H   0  0  0  0  0  0  0  0  0  0  0  0
   11.7002   -3.3730    0.0000 H   0  0  0  0  0  0  0  0  0  0  0  0
    7.2485    5.5009    0.0000 H   0  0  0  0  0  0  0  0  0  0  0  0
    6.5773    5.0132    0.0000 H   0  0  0  0  0  0  0  0  0  0  0  0
   10.0414   -5.3223    0.0000 H   0  0  0  0  0  0  0  0  0  0  0  0
   10.7126   -5.8100    0.0000 H   0  0  0  0  0  0  0  0  0  0  0  0
    7.0731    2.4532    0.0000 H   0  0  0  0  0  0  0  0  0  0  0  0
    7.4717    1.7629    0.0000 H   0  0  0  0  0  0  0  0  0  0  0  0
   11.7584   -2.7622    0.0000 H   0  0  0  0  0  0  0  0  0  0  0  0
   11.3599   -2.0719    0.0000 H   0  0  0  0  0  0  0  0  0  0  0  0
    5.4351    3.2426    0.0000 H   0  0  0  0  0  0  0  0  0  0  0  0
    6.2147    3.0768    0.0000 H   0  0  0  0  0  0  0  0  0  0  0  0
    9.6788   -3.3858    0.0000 H   0  0  0  0  0  0  0  0  0  0  0  0
    8.8992   -3.5516    0.0000 H   0  0  0  0  0  0  0  0  0  0  0  0
    8.0128    0.5355    0.0000 H   0  0  0  0  0  0  0  0  0  0  0  0
   10.8187   -0.8445    0.0000 H   0  0  0  0  0  0  0  0  0  0  0  0
    9.4158    2.9655    0.0000 H   0  0  0  0  0  0  0  0  0  0  0  0
    9.4158   -3.2745    0.0000 H   0  0  0  0  0  0  0  0  0  0  0  0
    5.9781    5.4631    0.0000 H   0  0  0  0  0  0  0  0  0  0  0  0
    7.5646   -3.6869    0.0000 H   0  0  0  0  0  0  0  0  0  0  0  0
    4.1005    3.3779    0.0000 H   0  0  0  0  0  0  0  0  0  0  0  0
    9.4422   -5.7722    0.0000 H   0  0  0  0  0  0  0  0  0  0  0  0
    2.8966    4.4619    0.0000 H   0  0  0  0  0  0  0  0  0  0  0  0
    8.2383   -6.8561    0.0000 H   0  0  0  0  0  0  0  0  0  0  0  0
   11.6847    0.6555    0.0000 H   0  0  0  0  0  0  0  0  0  0  0  0
    7.1468   -0.9645    0.0000 H   0  0  0  0  0  0  0  0  0  0  0  0
   11.7678    3.3455    0.0000 H   0  0  0  0  0  0  0  0  0  0  0  0
   11.1478    3.9655    0.0000 H   0  0  0  0  0  0  0  0  0  0  0  0
   10.5278    3.3455    0.0000 H   0  0  0  0  0  0  0  0  0  0  0  0
    7.0637   -3.6545    0.0000 H   0  0  0  0  0  0  0  0  0  0  0  0
    7.6837   -4.2745    0.0000 H   0  0  0  0  0  0  0  0  0  0  0  0
    8.3037   -3.6545    0.0000 H   0  0  0  0  0  0  0  0  0  0  0  0
    4.5249    8.0487    0.0000 H   0  0  0  0  0  0  0  0  0  0  0  0
    3.6493    8.0028    0.0000 H   0  0  0  0  0  0  0  0  0  0  0  0
    3.6952    7.1272    0.0000 H   0  0  0  0  0  0  0  0  0  0  0  0
    4.8413   -4.8619    0.0000 H   0  0  0  0  0  0  0  0  0  0  0  0
    4.7954   -5.7375    0.0000 H   0  0  0  0  0  0  0  0  0  0  0  0
    5.6710   -5.7834    0.0000 H   0  0  0  0  0  0  0  0  0  0  0  0
    1.8084    6.5814    0.0000 H   0  0  0  0  0  0  0  0  0  0  0  0
    1.4103    5.8002    0.0000 H   0  0  0  0  0  0  0  0  0  0  0  0
    2.1916    5.4021    0.0000 H   0  0  0  0  0  0  0  0  0  0  0  0
    6.0166   -7.7168    0.0000 H   0  0  0  0  0  0  0  0  0  0  0  0
    6.7520   -8.1944    0.0000 H   0  0  0  0  0  0  0  0  0  0  0  0
    7.2295   -7.4590    0.0000 H   0  0  0  0  0  0  0  0  0  0  0  0
  1 17  1  0  0  0  0
  1 23  1  0  0  0  0
  2 18  1  0  0  0  0
  2 24  1  0  0  0  0
  3 23  2  0  0  0  0
  4 24  2  0  0  0  0
  5 41  1  0  0  0  0
  5 49  1  0  0  0  0
  6 42  1  0  0  0  0
  6 50  1  0  0  0  0
  7 39  1  0  0  0  0
  7 81  1  0  0  0  0
  8 40  1  0  0  0  0
  8 82  1  0  0  0  0
  9 43  1  0  0  0  0
  9 51  1  0  0  0  0
 10 44  1  0  0  0  0
 10 52  1  0  0  0  0
 11 47  1  0  0  0  0
 11 53  1  0  0  0  0
 12 48  1  0  0  0  0
 12 54  1  0  0  0  0
 13 15  1  0  0  0  0
 13 17  1  0  0  0  0
 13 21  1  1  0  0  0
 13 55  1  0  0  0  0
 14 16  1  0  0  0  0
 14 18  1  0  0  0  0
 14 22  1  6  0  0  0
 14 56  1  0  0  0  0
 15 19  1  6  0  0  0
 15 23  1  0  0  0  0
 15 57  1  0  0  0  0
 16 20  1  1  0  0  0
 16 24  1  0  0  0  0
 16 58  1  0  0  0  0
 17 59  1  0  0  0  0
 17 60  1  0  0  0  0
 18 61  1  0  0  0  0
 18 62  1  0  0  0  0
 19 25  1  0  0  0  0
 19 63  1  0  0  0  0
 19 64  1  0  0  0  0
 20 26  1  0  0  0  0
 20 65  1  0  0  0  0
 20 66  1  0  0  0  0
 21 27  1  0  0  0  0
 21 67  1  0  0  0  0
 21 68  1  0  0  0  0
 22 28  1  0  0  0  0
 22 69  1  0  0  0  0
 22 70  1  0  0  0  0
 25 29  2  0  0  0  0
 25 33  1  0  0  0  0
 26 30  2  0  0  0  0
 26 34  1  0  0  0  0
 27 35  2  0  0  0  0
 27 37  1  0  0  0  0
 28 36  2  0  0  0  0
 28 38  1  0  0  0  0
 29 31  1  0  0  0  0
 29 71  1  0  0  0  0
 30 32  1  0  0  0  0
 30 72  1  0  0  0  0
 31 32  1  0  0  0  0
 31 39  2  0  0  0  0
 32 40  2  0  0  0  0
 33 41  2  0  0  0  0
 33 73  1  0  0  0  0
 34 42  2  0  0  0  0
 34 74  1  0  0  0  0
 35 43  1  0  0  0  0
 35 75  1  0  0  0  0
 36 44  1  0  0  0  0
 36 76  1  0  0  0  0
 37 45  2  0  0  0  0
 37 77  1  0  0  0  0
 38 46  2  0  0  0  0
 38 78  1  0  0  0  0
 39 41  1  0  0  0  0
 40 42  1  0  0  0  0
 43 47  2  0  0  0  0
 44 48  2  0  0  0  0
 45 47  1  0  0  0  0
 45 79  1  0  0  0  0
 46 48  1  0  0  0  0
 46 80  1  0  0  0  0
 49 83  1  0  0  0  0
 49 84  1  0  0  0  0
 49 85  1  0  0  0  0
 50 86  1  0  0  0  0
 50 87  1  0  0  0  0
 50 88  1  0  0  0  0
 51 89  1  0  0  0  0
 51 90  1  0  0  0  0
 51 91  1  0  0  0  0
 52 92  1  0  0  0  0
 52 93  1  0  0  0  0
 52 94  1  0  0  0  0
 53 95  1  0  0  0  0
 53 96  1  0  0  0  0
 53 97  1  0  0  0  0
 54 98  1  0  0  0  0
 54 99  1  0  0  0  0
 54100  1  0  0  0  0
M  END
> <PUBCHEM_COMPOUND_CID>
16215736

> <PUBCHEM_COMPOUND_CANONICALIZED>
1

> <PUBCHEM_CACTVS_COMPLEXITY>
1110

> <PUBCHEM_CACTVS_HBOND_ACCEPTOR>
12

> <PUBCHEM_CACTVS_HBOND_DONOR>
2

> <PUBCHEM_CACTVS_ROTATABLE_BOND>
15

> <PUBCHEM_CACTVS_SUBSKEYS>
AAADcfB8PAAAAAAAAAAAAAAAAAAAASJAAAAwYMGAAAAAAAABVAAAGgAACAAADQSgmAIyDoAABgCIAiDSCAACCAAgIAAIiAEGiIgNJjKGMRqCcCMkwBELuAfK6PyOoAADAAAIQABAAAYAABCAAAAAAAAAAA==

> <PUBCHEM_IUPAC_OPENEYE_NAME>
(3R,4R)-4-[(3,4-dimethoxyphenyl)methyl]-3-[[3-[5-[[(3R,4R)-4-[(3,4-dimethoxyphenyl)methyl]-2-oxo-tetrahydrofuran-3-yl]methyl]-2-hydroxy-3-methoxy-phenyl]-4-hydroxy-5-methoxy-phenyl]methyl]tetrahydrofuran-2-one

> <PUBCHEM_IUPAC_CAS_NAME>
(3R,4R)-4-[(3,4-dimethoxyphenyl)methyl]-3-[[3-[5-[[(3R,4R)-4-[(3,4-dimethoxyphenyl)methyl]-2-oxo-3-oxolanyl]methyl]-2-hydroxy-3-methoxyphenyl]-4-hydroxy-5-methoxyphenyl]methyl]-2-oxolanone

> <PUBCHEM_IUPAC_NAME_MARKUP>
(3<I>R</I>,4<I>R</I>)-4-[(3,4-dimethoxyphenyl)methyl]-3-[[3-[5-[[(3<I>R</I>,4<I>R</I>)-4-[(3,4-dimethoxyphenyl)methyl]-2-oxooxolan-3-yl]methyl]-2-hydroxy-3-methoxyphenyl]-4-hydroxy-5-methoxyphenyl]methyl]oxolan-2-one

> <PUBCHEM_IUPAC_NAME>
(3R,4R)-4-[(3,4-dimethoxyphenyl)methyl]-3-[[3-[5-[[(3R,4R)-4-[(3,4-dimethoxyphenyl)methyl]-2-oxooxolan-3-yl]methyl]-2-hydroxy-3-methoxyphenyl]-4-hydroxy-5-methoxyphenyl]methyl]oxolan-2-one

> <PUBCHEM_IUPAC_SYSTEMATIC_NAME>
(3R,4R)-4-[(3,4-dimethoxyphenyl)methyl]-3-[[3-[5-[[(3R,4R)-4-[(3,4-dimethoxyphenyl)methyl]-2-oxidanylidene-oxolan-3-yl]methyl]-3-methoxy-2-oxidanyl-phenyl]-5-methoxy-4-oxidanyl-phenyl]methyl]oxolan-2-one

> <PUBCHEM_IUPAC_TRADITIONAL_NAME>
(3R,4R)-3-[4-hydroxy-3-[2-hydroxy-5-[[(3R,4R)-2-keto-4-veratryl-tetrahydrofuran-3-yl]methyl]-3-methoxy-phenyl]-5-methoxy-benzyl]-4-veratryl-tetrahydrofuran-2-one

> <PUBCHEM_IUPAC_INCHI>
InChI=1S/C42H46O12/c1-47-33-9-7-23(17-35(33)49-3)11-27-21-53-41(45)29(27)13-25-15-31(39(43)37(19-25)51-5)32-16-26(20-38(52-6)40(32)44)14-30-28(22-54-42(30)46)12-24-8-10-34(48-2)36(18-24)50-4/h7-10,15-20,27-30,43-44H,11-14,21-22H2,1-6H3/t27-,28-,29+,30+/m0/s1

> <PUBCHEM_IUPAC_INCHIKEY>
XYMRYKOVQDOJFH-VZNYXHRGSA-N

> <PUBCHEM_XLOGP3_AA>
6.9

> <PUBCHEM_EXACT_MASS>
742.298927

> <PUBCHEM_MOLECULAR_FORMULA>
C42H46O12

> <PUBCHEM_MOLECULAR_WEIGHT>
742.8

> <PUBCHEM_OPENEYE_CAN_SMILES>
COC1=C(C=C(C=C1)CC2COC(=O)C2CC3=CC(=C(C(=C3)OC)O)C4=C(C(=CC(=C4)CC5C(COC5=O)CC6=CC(=C(C=C6)OC)OC)OC)O)OC

> <PUBCHEM_OPENEYE_ISO_SMILES>
COC1=C(C=C(C=C1)C[C@H]2COC(=O)[C@@H]2CC3=CC(=C(C(=C3)OC)O)C4=C(C(=CC(=C4)C[C@@H]5[C@H](COC5=O)CC6=CC(=C(C=C6)OC)OC)OC)O)OC

> <PUBCHEM_CACTVS_TPSA>
148

> <PUBCHEM_MONOISOTOPIC_WEIGHT>
742.298927

> <PUBCHEM_TOTAL_CHARGE>
0

> <PUBCHEM_HEAVY_ATOM_COUNT>
54

> <PUBCHEM_ATOM_DEF_STEREO_COUNT>
4

> <PUBCHEM_ATOM_UDEF_STEREO_COUNT>
0

> <PUBCHEM_BOND_DEF_STEREO_COUNT>
0

> <PUBCHEM_BOND_UDEF_STEREO_COUNT>
0

> <PUBCHEM_ISOTOPIC_ATOM_COUNT>
0

> <PUBCHEM_COMPONENT_COUNT>
1

> <PUBCHEM_CACTVS_TAUTO_COUNT>
-1

> <PUBCHEM_COORDINATE_TYPE>
1
5
255

> <PUBCHEM_BONDANNOTATIONS>
13  21  5
14  22  6
15  19  6
16  20  5
25  29  8
25  33  8
26  30  8
26  34  8
27  35  8
27  37  8
28  36  8
28  38  8
29  31  8
30  32  8
31  39  8
32  40  8
33  41  8
34  42  8
35  43  8
36  44  8
37  45  8
38  46  8
39  41  8
40  42  8
43  47  8
44  48  8
45  47  8
46  48  8

$$$$
