73425494
  -OEChem-09082009292D

 97102  0     1  0  0  0  0  0999 V2000
    2.8398    3.3192    0.0000 O   0  0  0  0  0  0  0  0  0  0  0  0
    8.8328    2.3508    0.0000 O   0  0  0  0  0  0  0  0  0  0  0  0
    2.9330    1.5396    0.0000 O   0  0  0  0  0  0  0  0  0  0  0  0
    7.0205    1.1556    0.0000 O   0  0  0  0  0  0  0  0  0  0  0  0
    8.4756    5.6551    0.0000 O   0  0  0  0  0  0  0  0  0  0  0  0
    2.7431   -0.5824    0.0000 O   0  0  0  0  0  0  0  0  0  0  0  0
    4.2294   -1.9207    0.0000 O   0  0  0  0  0  0  0  0  0  0  0  0
    4.9726   -2.5898    0.0000 O   0  0  0  0  0  0  0  0  0  0  0  0
    7.8258   -1.6627    0.0000 O   0  0  0  0  0  0  0  0  0  0  0  0
   12.4164    1.4235    0.0000 O   0  0  0  0  0  0  0  0  0  0  0  0
   13.4164    3.1556    0.0000 O   0  0  0  0  0  0  0  0  0  0  0  0
    6.9941   -5.5753    0.0000 O   0  0  0  0  0  0  0  0  0  0  0  0
    8.8962   -4.9573    0.0000 O   0  0  0  0  0  0  0  0  0  0  0  0
    4.4225    3.6556    0.0000 C   0  0  1  0  0  0  0  0  0  0  0  0
    4.3179    2.6611    0.0000 C   0  0  1  0  0  0  0  0  0  0  0  0
    5.2885    4.1556    0.0000 C   0  0  0  0  0  0  0  0  0  0  0  0
    3.5089    4.0623    0.0000 C   0  0  0  0  0  0  0  0  0  0  0  0
    5.0611    1.9919    0.0000 C   0  0  0  0  0  0  0  0  0  0  0  0
    8.8328    3.9603    0.0000 C   0  0  1  0  0  0  0  0  0  0  0  0
    6.1545    3.6556    0.0000 C   0  0  0  0  0  0  0  0  0  0  0  0
    3.3398    2.4532    0.0000 C   0  0  0  0  0  0  0  0  0  0  0  0
    7.8866    3.6556    0.0000 C   0  0  0  0  0  0  0  0  0  0  0  0
    9.4164    3.1556    0.0000 C   0  0  1  0  0  0  0  0  0  0  0  0
    7.0205    4.1556    0.0000 C   0  0  0  0  0  0  0  0  0  0  0  0
    7.8866    2.6556    0.0000 C   0  0  0  0  0  0  0  0  0  0  0  0
    4.8532    1.0138    0.0000 C   0  0  0  0  0  0  0  0  0  0  0  0
    6.1545    2.6556    0.0000 C   0  0  0  0  0  0  0  0  0  0  0  0
    7.0205    2.1556    0.0000 C   0  0  0  0  0  0  0  0  0  0  0  0
    9.1434    4.9108    0.0000 C   0  0  0  0  0  0  0  0  0  0  0  0
   10.4164    3.1556    0.0000 C   0  0  0  0  0  0  0  0  0  0  0  0
    5.5963    0.3447    0.0000 C   0  0  0  0  0  0  0  0  0  0  0  0
    5.3884   -0.6335    0.0000 C   0  0  0  0  0  0  0  0  0  0  0  0
    3.9021    0.7048    0.0000 C   0  0  0  0  0  0  0  0  0  0  0  0
    6.1316   -1.3026    0.0000 C   0  0  3  0  0  0  0  0  0  0  0  0
    4.4374   -0.9425    0.0000 C   0  0  0  0  0  0  0  0  0  0  0  0
    3.6942   -0.2734    0.0000 C   0  0  0  0  0  0  0  0  0  0  0  0
    5.9236   -2.2808    0.0000 C   0  0  3  0  0  0  0  0  0  0  0  0
   10.9164    2.2896    0.0000 C   0  0  0  0  0  0  0  0  0  0  0  0
   10.9164    4.0216    0.0000 C   0  0  0  0  0  0  0  0  0  0  0  0
    7.0826   -0.9936    0.0000 C   0  0  0  0  0  0  0  0  0  0  0  0
   11.9164    2.2896    0.0000 C   0  0  0  0  0  0  0  0  0  0  0  0
    6.6668   -2.9499    0.0000 C   0  0  0  0  0  0  0  0  0  0  0  0
   11.9164    4.0216    0.0000 C   0  0  0  0  0  0  0  0  0  0  0  0
   12.4164    3.1556    0.0000 C   0  0  0  0  0  0  0  0  0  0  0  0
    6.1545    0.6556    0.0000 C   0  0  0  0  0  0  0  0  0  0  0  0
    6.4589   -3.9280    0.0000 C   0  0  0  0  0  0  0  0  0  0  0  0
    7.6178   -2.6409    0.0000 C   0  0  0  0  0  0  0  0  0  0  0  0
    2.0000    0.0867    0.0000 C   0  0  0  0  0  0  0  0  0  0  0  0
    7.2020   -4.5972    0.0000 C   0  0  0  0  0  0  0  0  0  0  0  0
    8.3610   -3.3100    0.0000 C   0  0  0  0  0  0  0  0  0  0  0  0
    8.1531   -4.2882    0.0000 C   0  0  0  0  0  0  0  0  0  0  0  0
   11.9164    0.5575    0.0000 C   0  0  0  0  0  0  0  0  0  0  0  0
    7.7372   -6.2445    0.0000 C   0  0  0  0  0  0  0  0  0  0  0  0
    4.3900    4.2747    0.0000 H   0  0  0  0  0  0  0  0  0  0  0  0
    4.1575    2.0622    0.0000 H   0  0  0  0  0  0  0  0  0  0  0  0
    5.6870    4.6305    0.0000 H   0  0  0  0  0  0  0  0  0  0  0  0
    4.8900    4.6305    0.0000 H   0  0  0  0  0  0  0  0  0  0  0  0
    3.8189    4.5993    0.0000 H   0  0  0  0  0  0  0  0  0  0  0  0
    3.0073    4.4268    0.0000 H   0  0  0  0  0  0  0  0  0  0  0  0
    5.6359    1.7597    0.0000 H   0  0  0  0  0  0  0  0  0  0  0  0
    5.3896    2.5177    0.0000 H   0  0  0  0  0  0  0  0  0  0  0  0
    9.4453    4.0565    0.0000 H   0  0  0  0  0  0  0  0  0  0  0  0
    9.6981    2.6033    0.0000 H   0  0  0  0  0  0  0  0  0  0  0  0
    7.0205    4.7756    0.0000 H   0  0  0  0  0  0  0  0  0  0  0  0
    5.6176    2.3456    0.0000 H   0  0  0  0  0  0  0  0  0  0  0  0
    9.6904    4.6188    0.0000 H   0  0  0  0  0  0  0  0  0  0  0  0
    9.5260    5.3987    0.0000 H   0  0  0  0  0  0  0  0  0  0  0  0
    6.1860    0.5362    0.0000 H   0  0  0  0  0  0  0  0  0  0  0  0
    3.4414    1.1196    0.0000 H   0  0  0  0  0  0  0  0  0  0  0  0
    6.2604   -0.6962    0.0000 H   0  0  0  0  0  0  0  0  0  0  0  0
    5.7947   -2.8872    0.0000 H   0  0  0  0  0  0  0  0  0  0  0  0
   10.6064    1.7526    0.0000 H   0  0  0  0  0  0  0  0  0  0  0  0
   10.6064    4.5585    0.0000 H   0  0  0  0  0  0  0  0  0  0  0  0
    7.5712   -0.6119    0.0000 H   0  0  0  0  0  0  0  0  0  0  0  0
    6.7915   -0.4462    0.0000 H   0  0  0  0  0  0  0  0  0  0  0  0
    8.6682    6.2445    0.0000 H   0  0  0  0  0  0  0  0  0  0  0  0
   12.2264    4.5585    0.0000 H   0  0  0  0  0  0  0  0  0  0  0  0
    5.8445    1.1925    0.0000 H   0  0  0  0  0  0  0  0  0  0  0  0
    5.6176    0.3456    0.0000 H   0  0  0  0  0  0  0  0  0  0  0  0
    6.4645    0.1186    0.0000 H   0  0  0  0  0  0  0  0  0  0  0  0
    3.6398   -2.1122    0.0000 H   0  0  0  0  0  0  0  0  0  0  0  0
    4.8437   -3.1962    0.0000 H   0  0  0  0  0  0  0  0  0  0  0  0
    5.8692   -4.1196    0.0000 H   0  0  0  0  0  0  0  0  0  0  0  0
    7.7467   -2.0344    0.0000 H   0  0  0  0  0  0  0  0  0  0  0  0
    8.4154   -1.4712    0.0000 H   0  0  0  0  0  0  0  0  0  0  0  0
    2.4149    0.5475    0.0000 H   0  0  0  0  0  0  0  0  0  0  0  0
    1.5392    0.5016    0.0000 H   0  0  0  0  0  0  0  0  0  0  0  0
    1.5851   -0.3740    0.0000 H   0  0  0  0  0  0  0  0  0  0  0  0
    8.9506   -3.1184    0.0000 H   0  0  0  0  0  0  0  0  0  0  0  0
   13.7264    3.6925    0.0000 H   0  0  0  0  0  0  0  0  0  0  0  0
   11.3795    0.8675    0.0000 H   0  0  0  0  0  0  0  0  0  0  0  0
   11.6064    0.0206    0.0000 H   0  0  0  0  0  0  0  0  0  0  0  0
   12.4533    0.2475    0.0000 H   0  0  0  0  0  0  0  0  0  0  0  0
    9.4859   -4.7657    0.0000 H   0  0  0  0  0  0  0  0  0  0  0  0
    7.3224   -6.7052    0.0000 H   0  0  0  0  0  0  0  0  0  0  0  0
    8.1980   -6.6593    0.0000 H   0  0  0  0  0  0  0  0  0  0  0  0
    8.1521   -5.7837    0.0000 H   0  0  0  0  0  0  0  0  0  0  0  0
  1 17  1  0  0  0  0
  1 21  1  0  0  0  0
  2 23  1  0  0  0  0
  2 25  1  0  0  0  0
  3 21  2  0  0  0  0
  4 28  1  0  0  0  0
  4 45  1  0  0  0  0
  5 29  1  0  0  0  0
  5 76  1  0  0  0  0
  6 36  1  0  0  0  0
  6 48  1  0  0  0  0
  7 35  1  0  0  0  0
  7 81  1  0  0  0  0
  8 37  1  0  0  0  0
  8 82  1  0  0  0  0
  9 40  1  0  0  0  0
  9 85  1  0  0  0  0
 10 41  1  0  0  0  0
 10 52  1  0  0  0  0
 11 44  1  0  0  0  0
 11 90  1  0  0  0  0
 12 49  1  0  0  0  0
 12 53  1  0  0  0  0
 13 51  1  0  0  0  0
 13 94  1  0  0  0  0
 14 15  1  0  0  0  0
 14 16  1  6  0  0  0
 14 17  1  0  0  0  0
 14 54  1  0  0  0  0
 15 18  1  1  0  0  0
 15 21  1  0  0  0  0
 15 55  1  0  0  0  0
 16 20  1  0  0  0  0
 16 56  1  0  0  0  0
 16 57  1  0  0  0  0
 17 58  1  0  0  0  0
 17 59  1  0  0  0  0
 18 26  1  0  0  0  0
 18 60  1  0  0  0  0
 18 61  1  0  0  0  0
 19 22  1  0  0  0  0
 19 23  1  0  0  0  0
 19 29  1  6  0  0  0
 19 62  1  0  0  0  0
 20 24  2  0  0  0  0
 20 27  1  0  0  0  0
 22 24  1  0  0  0  0
 22 25  2  0  0  0  0
 23 30  1  1  0  0  0
 23 63  1  0  0  0  0
 24 64  1  0  0  0  0
 25 28  1  0  0  0  0
 26 31  2  0  0  0  0
 26 33  1  0  0  0  0
 27 28  2  0  0  0  0
 27 65  1  0  0  0  0
 29 66  1  0  0  0  0
 29 67  1  0  0  0  0
 30 38  2  0  0  0  0
 30 39  1  0  0  0  0
 31 32  1  0  0  0  0
 31 68  1  0  0  0  0
 32 34  1  0  0  0  0
 32 35  2  0  0  0  0
 33 36  2  0  0  0  0
 33 69  1  0  0  0  0
 34 37  1  0  0  0  0
 34 40  1  0  0  0  0
 34 70  1  0  0  0  0
 35 36  1  0  0  0  0
 37 42  1  0  0  0  0
 37 71  1  0  0  0  0
 38 41  1  0  0  0  0
 38 72  1  0  0  0  0
 39 43  2  0  0  0  0
 39 73  1  0  0  0  0
 40 74  1  0  0  0  0
 40 75  1  0  0  0  0
 41 44  2  0  0  0  0
 42 46  2  0  0  0  0
 42 47  1  0  0  0  0
 43 44  1  0  0  0  0
 43 77  1  0  0  0  0
 45 78  1  0  0  0  0
 45 79  1  0  0  0  0
 45 80  1  0  0  0  0
 46 49  1  0  0  0  0
 46 83  1  0  0  0  0
 47 50  2  0  0  0  0
 47 84  1  0  0  0  0
 48 86  1  0  0  0  0
 48 87  1  0  0  0  0
 48 88  1  0  0  0  0
 49 51  2  0  0  0  0
 50 51  1  0  0  0  0
 50 89  1  0  0  0  0
 52 91  1  0  0  0  0
 52 92  1  0  0  0  0
 52 93  1  0  0  0  0
 53 95  1  0  0  0  0
 53 96  1  0  0  0  0
 53 97  1  0  0  0  0
M  END
> <PUBCHEM_COMPOUND_CID>
73425494

> <PUBCHEM_COMPOUND_CANONICALIZED>
1

> <PUBCHEM_CACTVS_COMPLEXITY>
1160

> <PUBCHEM_CACTVS_HBOND_ACCEPTOR>
13

> <PUBCHEM_CACTVS_HBOND_DONOR>
6

> <PUBCHEM_CACTVS_ROTATABLE_BOND>
14

> <PUBCHEM_CACTVS_SUBSKEYS>
AAADcfB8PAAAAAAAAAAAAAAAAAAAASJAAAAwYMGAAAAAAEgBVAAAGgAACAAADRSgmAIyDoAABgCIAiDSCAACCAAgIAAIiAEGiIgNNjKGMRqCeCOlwBELuAfK6PyOoAADAAAIQABAAAYAABCAAAAAAAAAAA==

> <PUBCHEM_IUPAC_OPENEYE_NAME>
(3R,4R)-3-[[4-hydroxy-3-[2-hydroxy-2-(4-hydroxy-3-methoxy-phenyl)-1-(hydroxymethyl)ethyl]-5-methoxy-phenyl]methyl]-4-[[(2S,3R)-2-(4-hydroxy-3-methoxy-phenyl)-3-(hydroxymethyl)-7-methoxy-2,3-dihydrobenzofuran-5-yl]methyl]tetrahydrofuran-2-one

> <PUBCHEM_IUPAC_CAS_NAME>
(3R,4R)-3-[[3-[1,3-dihydroxy-1-(4-hydroxy-3-methoxyphenyl)propan-2-yl]-4-hydroxy-5-methoxyphenyl]methyl]-4-[[(2S,3R)-2-(4-hydroxy-3-methoxyphenyl)-3-(hydroxymethyl)-7-methoxy-2,3-dihydrobenzofuran-5-yl]methyl]-2-oxolanone

> <PUBCHEM_IUPAC_NAME_MARKUP>
(3<I>R</I>,4<I>R</I>)-3-[[3-[1,3-dihydroxy-1-(4-hydroxy-3-methoxyphenyl)propan-2-yl]-4-hydroxy-5-methoxyphenyl]methyl]-4-[[(2<I>S</I>,3<I>R</I>)-2-(4-hydroxy-3-methoxyphenyl)-3-(hydroxymethyl)-7-methoxy-2,3-dihydro-1-benzofuran-5-yl]methyl]oxolan-2-one

> <PUBCHEM_IUPAC_NAME>
(3R,4R)-3-[[3-[1,3-dihydroxy-1-(4-hydroxy-3-methoxyphenyl)propan-2-yl]-4-hydroxy-5-methoxyphenyl]methyl]-4-[[(2S,3R)-2-(4-hydroxy-3-methoxyphenyl)-3-(hydroxymethyl)-7-methoxy-2,3-dihydro-1-benzofuran-5-yl]methyl]oxolan-2-one

> <PUBCHEM_IUPAC_SYSTEMATIC_NAME>
(3R,4R)-4-[[(2S,3R)-3-(hydroxymethyl)-7-methoxy-2-(3-methoxy-4-oxidanyl-phenyl)-2,3-dihydro-1-benzofuran-5-yl]methyl]-3-[[3-methoxy-5-[1-(3-methoxy-4-oxidanyl-phenyl)-1,3-bis(oxidanyl)propan-2-yl]-4-oxidanyl-phenyl]methyl]oxolan-2-one

> <PUBCHEM_IUPAC_TRADITIONAL_NAME>
(3R,4R)-3-[4-hydroxy-3-[2-hydroxy-2-(4-hydroxy-3-methoxy-phenyl)-1-methylol-ethyl]-5-methoxy-benzyl]-4-[[(2S,3R)-2-(4-hydroxy-3-methoxy-phenyl)-7-methoxy-3-methylol-coumaran-5-yl]methyl]tetrahydrofuran-2-one

> <PUBCHEM_IUPAC_INCHI>
InChI=1S/C40H44O13/c1-48-32-15-22(5-7-30(32)43)36(45)28(17-41)26-11-21(13-34(50-3)37(26)46)10-25-24(19-52-40(25)47)9-20-12-27-29(18-42)38(53-39(27)35(14-20)51-4)23-6-8-31(44)33(16-23)49-2/h5-8,11-16,24-25,28-29,36,38,41-46H,9-10,17-19H2,1-4H3/t24-,25+,28?,29-,36?,38+/m0/s1

> <PUBCHEM_IUPAC_INCHIKEY>
BQAUNBCJFDCZFB-FGEPHIOBSA-N

> <PUBCHEM_XLOGP3_AA>
3.7

> <PUBCHEM_EXACT_MASS>
732.278191

> <PUBCHEM_MOLECULAR_FORMULA>
C40H44O13

> <PUBCHEM_MOLECULAR_WEIGHT>
732.8

> <PUBCHEM_OPENEYE_CAN_SMILES>
COC1=CC(=CC(=C1O)C(CO)C(C2=CC(=C(C=C2)O)OC)O)CC3C(COC3=O)CC4=CC5=C(C(=C4)OC)OC(C5CO)C6=CC(=C(C=C6)O)OC

> <PUBCHEM_OPENEYE_ISO_SMILES>
COC1=CC(=CC(=C1O)C(CO)C(C2=CC(=C(C=C2)O)OC)O)C[C@@H]3[C@H](COC3=O)CC4=CC5=C(C(=C4)OC)O[C@@H]([C@H]5CO)C6=CC(=C(C=C6)O)OC

> <PUBCHEM_CACTVS_TPSA>
194

> <PUBCHEM_MONOISOTOPIC_WEIGHT>
732.278191

> <PUBCHEM_TOTAL_CHARGE>
0

> <PUBCHEM_HEAVY_ATOM_COUNT>
53

> <PUBCHEM_ATOM_DEF_STEREO_COUNT>
4

> <PUBCHEM_ATOM_UDEF_STEREO_COUNT>
2

> <PUBCHEM_BOND_DEF_STEREO_COUNT>
0

> <PUBCHEM_BOND_UDEF_STEREO_COUNT>
0

> <PUBCHEM_ISOTOPIC_ATOM_COUNT>
0

> <PUBCHEM_COMPONENT_COUNT>
1

> <PUBCHEM_CACTVS_TAUTO_COUNT>
-1

> <PUBCHEM_COORDINATE_TYPE>
1
5
255

> <PUBCHEM_BONDANNOTATIONS>
14  16  6
15  18  5
19  29  6
20  24  8
20  27  8
22  24  8
22  25  8
23  30  5
25  28  8
26  31  8
26  33  8
27  28  8
30  38  8
30  39  8
31  32  8
32  35  8
33  36  8
34  40  3
35  36  8
38  41  8
39  43  8
41  44  8
42  46  8
42  47  8
43  44  8
46  49  8
47  50  8
49  51  8
50  51  8
37  8  3

$$$$
