73425493
  -OEChem-09082009292D

 97102  0     1  0  0  0  0  0999 V2000
    6.3038   -4.1039    0.0000 O   0  0  0  0  0  0  0  0  0  0  0  0
   11.7968   -4.2062    0.0000 O   0  0  0  0  0  0  0  0  0  0  0  0
    8.0250   -4.5651    0.0000 O   0  0  0  0  0  0  0  0  0  0  0  0
    9.9845   -5.4015    0.0000 O   0  0  0  0  0  0  0  0  0  0  0  0
   11.4396   -0.9019    0.0000 O   0  0  0  0  0  0  0  0  0  0  0  0
    2.8766   -2.2368    0.0000 O   0  0  0  0  0  0  0  0  0  0  0  0
    2.4608   -0.2805    0.0000 O   0  0  0  0  0  0  0  0  0  0  0  0
    5.6412    1.4178    0.0000 O   0  0  0  0  0  0  0  0  0  0  0  0
    2.7881    2.3449    0.0000 O   0  0  0  0  0  0  0  0  0  0  0  0
   15.3804   -5.1335    0.0000 O   0  0  0  0  0  0  0  0  0  0  0  0
   16.3804   -3.4015    0.0000 O   0  0  0  0  0  0  0  0  0  0  0  0
    5.7606    5.0214    0.0000 O   0  0  0  0  0  0  0  0  0  0  0  0
    3.8585    5.6394    0.0000 O   0  0  0  0  0  0  0  0  0  0  0  0
    6.4729   -2.4947    0.0000 C   0  0  1  0  0  0  0  0  0  0  0  0
    7.3864   -2.9015    0.0000 C   0  0  1  0  0  0  0  0  0  0  0  0
    8.2525   -2.4015    0.0000 C   0  0  0  0  0  0  0  0  0  0  0  0
    6.2650   -1.5166    0.0000 C   0  0  0  0  0  0  0  0  0  0  0  0
    5.8038   -3.2379    0.0000 C   0  0  0  0  0  0  0  0  0  0  0  0
   11.7968   -2.5968    0.0000 C   0  0  1  0  0  0  0  0  0  0  0  0
    7.2819   -3.8960    0.0000 C   0  0  0  0  0  0  0  0  0  0  0  0
    9.1185   -2.9015    0.0000 C   0  0  0  0  0  0  0  0  0  0  0  0
   10.8505   -2.9015    0.0000 C   0  0  0  0  0  0  0  0  0  0  0  0
   12.3804   -3.4015    0.0000 C   0  0  1  0  0  0  0  0  0  0  0  0
    9.9845   -2.4015    0.0000 C   0  0  0  0  0  0  0  0  0  0  0  0
    5.3139   -1.2076    0.0000 C   0  0  0  0  0  0  0  0  0  0  0  0
   10.8505   -3.9015    0.0000 C   0  0  0  0  0  0  0  0  0  0  0  0
    9.1185   -3.9015    0.0000 C   0  0  0  0  0  0  0  0  0  0  0  0
   12.1074   -1.6462    0.0000 C   0  0  0  0  0  0  0  0  0  0  0  0
    9.9845   -4.4015    0.0000 C   0  0  0  0  0  0  0  0  0  0  0  0
   13.3804   -3.4015    0.0000 C   0  0  0  0  0  0  0  0  0  0  0  0
    5.1060   -0.2294    0.0000 C   0  0  0  0  0  0  0  0  0  0  0  0
    4.1550    0.0796    0.0000 C   0  0  0  0  0  0  0  0  0  0  0  0
    4.5708   -1.8767    0.0000 C   0  0  0  0  0  0  0  0  0  0  0  0
    3.9470    1.0577    0.0000 C   0  0  3  0  0  0  0  0  0  0  0  0
    3.4118   -0.5896    0.0000 C   0  0  0  0  0  0  0  0  0  0  0  0
    3.6197   -1.5677    0.0000 C   0  0  0  0  0  0  0  0  0  0  0  0
    4.6902    1.7269    0.0000 C   0  0  3  0  0  0  0  0  0  0  0  0
   13.8804   -4.2675    0.0000 C   0  0  0  0  0  0  0  0  0  0  0  0
   13.8804   -2.5355    0.0000 C   0  0  0  0  0  0  0  0  0  0  0  0
    2.9960    1.3667    0.0000 C   0  0  0  0  0  0  0  0  0  0  0  0
    4.4823    2.7050    0.0000 C   0  0  0  0  0  0  0  0  0  0  0  0
   14.8804   -4.2675    0.0000 C   0  0  0  0  0  0  0  0  0  0  0  0
   14.8804   -2.5355    0.0000 C   0  0  0  0  0  0  0  0  0  0  0  0
   15.3804   -3.4015    0.0000 C   0  0  0  0  0  0  0  0  0  0  0  0
    9.1185   -5.9015    0.0000 C   0  0  0  0  0  0  0  0  0  0  0  0
    5.2254    3.3741    0.0000 C   0  0  0  0  0  0  0  0  0  0  0  0
    3.5312    3.0140    0.0000 C   0  0  0  0  0  0  0  0  0  0  0  0
    3.0845   -3.2150    0.0000 C   0  0  0  0  0  0  0  0  0  0  0  0
    5.0175    4.3523    0.0000 C   0  0  0  0  0  0  0  0  0  0  0  0
    3.3233    3.9922    0.0000 C   0  0  0  0  0  0  0  0  0  0  0  0
    4.0664    4.6613    0.0000 C   0  0  0  0  0  0  0  0  0  0  0  0
   14.8804   -5.9996    0.0000 C   0  0  0  0  0  0  0  0  0  0  0  0
    5.5527    5.9996    0.0000 C   0  0  0  0  0  0  0  0  0  0  0  0
    5.8740   -2.3343    0.0000 H   0  0  0  0  0  0  0  0  0  0  0  0
    7.3540   -2.2823    0.0000 H   0  0  0  0  0  0  0  0  0  0  0  0
    8.6510   -1.9265    0.0000 H   0  0  0  0  0  0  0  0  0  0  0  0
    7.8539   -1.9265    0.0000 H   0  0  0  0  0  0  0  0  0  0  0  0
    6.8846   -1.4950    0.0000 H   0  0  0  0  0  0  0  0  0  0  0  0
    6.3513   -0.9026    0.0000 H   0  0  0  0  0  0  0  0  0  0  0  0
    5.3889   -2.7771    0.0000 H   0  0  0  0  0  0  0  0  0  0  0  0
    5.3022   -3.6023    0.0000 H   0  0  0  0  0  0  0  0  0  0  0  0
   12.4092   -2.5006    0.0000 H   0  0  0  0  0  0  0  0  0  0  0  0
   12.6621   -3.9538    0.0000 H   0  0  0  0  0  0  0  0  0  0  0  0
    9.9845   -1.7815    0.0000 H   0  0  0  0  0  0  0  0  0  0  0  0
    8.5816   -4.2115    0.0000 H   0  0  0  0  0  0  0  0  0  0  0  0
   12.6543   -1.9382    0.0000 H   0  0  0  0  0  0  0  0  0  0  0  0
   12.4900   -1.1583    0.0000 H   0  0  0  0  0  0  0  0  0  0  0  0
    5.5668    0.1854    0.0000 H   0  0  0  0  0  0  0  0  0  0  0  0
    4.6997   -2.4832    0.0000 H   0  0  0  0  0  0  0  0  0  0  0  0
    3.4863    0.6429    0.0000 H   0  0  0  0  0  0  0  0  0  0  0  0
    5.1509    2.1417    0.0000 H   0  0  0  0  0  0  0  0  0  0  0  0
   13.5704   -4.8044    0.0000 H   0  0  0  0  0  0  0  0  0  0  0  0
   13.5704   -1.9985    0.0000 H   0  0  0  0  0  0  0  0  0  0  0  0
    2.3764    1.3451    0.0000 H   0  0  0  0  0  0  0  0  0  0  0  0
    2.9097    0.7528    0.0000 H   0  0  0  0  0  0  0  0  0  0  0  0
   11.6322   -0.3126    0.0000 H   0  0  0  0  0  0  0  0  0  0  0  0
   15.1904   -1.9985    0.0000 H   0  0  0  0  0  0  0  0  0  0  0  0
    8.8085   -5.3646    0.0000 H   0  0  0  0  0  0  0  0  0  0  0  0
    8.5816   -6.2115    0.0000 H   0  0  0  0  0  0  0  0  0  0  0  0
    9.4285   -6.4384    0.0000 H   0  0  0  0  0  0  0  0  0  0  0  0
    2.0000   -0.6954    0.0000 H   0  0  0  0  0  0  0  0  0  0  0  0
    6.1020    1.8327    0.0000 H   0  0  0  0  0  0  0  0  0  0  0  0
    5.8151    3.1826    0.0000 H   0  0  0  0  0  0  0  0  0  0  0  0
    3.0705    2.5992    0.0000 H   0  0  0  0  0  0  0  0  0  0  0  0
    2.1984    2.5365    0.0000 H   0  0  0  0  0  0  0  0  0  0  0  0
    2.4780   -3.3439    0.0000 H   0  0  0  0  0  0  0  0  0  0  0  0
    3.2134   -3.8214    0.0000 H   0  0  0  0  0  0  0  0  0  0  0  0
    3.6909   -3.0861    0.0000 H   0  0  0  0  0  0  0  0  0  0  0  0
    2.7336    4.1838    0.0000 H   0  0  0  0  0  0  0  0  0  0  0  0
   16.6904   -2.8646    0.0000 H   0  0  0  0  0  0  0  0  0  0  0  0
   14.3434   -5.6896    0.0000 H   0  0  0  0  0  0  0  0  0  0  0  0
   14.5704   -6.5365    0.0000 H   0  0  0  0  0  0  0  0  0  0  0  0
   15.4173   -6.3096    0.0000 H   0  0  0  0  0  0  0  0  0  0  0  0
    3.2689    5.8310    0.0000 H   0  0  0  0  0  0  0  0  0  0  0  0
    6.1592    6.1285    0.0000 H   0  0  0  0  0  0  0  0  0  0  0  0
    5.4238    6.6060    0.0000 H   0  0  0  0  0  0  0  0  0  0  0  0
    4.9463    5.8707    0.0000 H   0  0  0  0  0  0  0  0  0  0  0  0
  1 18  1  0  0  0  0
  1 20  1  0  0  0  0
  2 23  1  0  0  0  0
  2 26  1  0  0  0  0
  3 20  2  0  0  0  0
  4 29  1  0  0  0  0
  4 45  1  0  0  0  0
  5 28  1  0  0  0  0
  5 76  1  0  0  0  0
  6 36  1  0  0  0  0
  6 48  1  0  0  0  0
  7 35  1  0  0  0  0
  7 81  1  0  0  0  0
  8 37  1  0  0  0  0
  8 82  1  0  0  0  0
  9 40  1  0  0  0  0
  9 85  1  0  0  0  0
 10 42  1  0  0  0  0
 10 52  1  0  0  0  0
 11 44  1  0  0  0  0
 11 90  1  0  0  0  0
 12 49  1  0  0  0  0
 12 53  1  0  0  0  0
 13 51  1  0  0  0  0
 13 94  1  0  0  0  0
 14 15  1  0  0  0  0
 14 17  1  6  0  0  0
 14 18  1  0  0  0  0
 14 54  1  0  0  0  0
 15 16  1  1  0  0  0
 15 20  1  0  0  0  0
 15 55  1  0  0  0  0
 16 21  1  0  0  0  0
 16 56  1  0  0  0  0
 16 57  1  0  0  0  0
 17 25  1  0  0  0  0
 17 58  1  0  0  0  0
 17 59  1  0  0  0  0
 18 60  1  0  0  0  0
 18 61  1  0  0  0  0
 19 22  1  0  0  0  0
 19 23  1  0  0  0  0
 19 28  1  6  0  0  0
 19 62  1  0  0  0  0
 21 24  2  0  0  0  0
 21 27  1  0  0  0  0
 22 24  1  0  0  0  0
 22 26  2  0  0  0  0
 23 30  1  1  0  0  0
 23 63  1  0  0  0  0
 24 64  1  0  0  0  0
 25 31  2  0  0  0  0
 25 33  1  0  0  0  0
 26 29  1  0  0  0  0
 27 29  2  0  0  0  0
 27 65  1  0  0  0  0
 28 66  1  0  0  0  0
 28 67  1  0  0  0  0
 30 38  2  0  0  0  0
 30 39  1  0  0  0  0
 31 32  1  0  0  0  0
 31 68  1  0  0  0  0
 32 34  1  0  0  0  0
 32 35  2  0  0  0  0
 33 36  2  0  0  0  0
 33 69  1  0  0  0  0
 34 37  1  0  0  0  0
 34 40  1  0  0  0  0
 34 70  1  0  0  0  0
 35 36  1  0  0  0  0
 37 41  1  0  0  0  0
 37 71  1  0  0  0  0
 38 42  1  0  0  0  0
 38 72  1  0  0  0  0
 39 43  2  0  0  0  0
 39 73  1  0  0  0  0
 40 74  1  0  0  0  0
 40 75  1  0  0  0  0
 41 46  2  0  0  0  0
 41 47  1  0  0  0  0
 42 44  2  0  0  0  0
 43 44  1  0  0  0  0
 43 77  1  0  0  0  0
 45 78  1  0  0  0  0
 45 79  1  0  0  0  0
 45 80  1  0  0  0  0
 46 49  1  0  0  0  0
 46 83  1  0  0  0  0
 47 50  2  0  0  0  0
 47 84  1  0  0  0  0
 48 86  1  0  0  0  0
 48 87  1  0  0  0  0
 48 88  1  0  0  0  0
 49 51  2  0  0  0  0
 50 51  1  0  0  0  0
 50 89  1  0  0  0  0
 52 91  1  0  0  0  0
 52 92  1  0  0  0  0
 52 93  1  0  0  0  0
 53 95  1  0  0  0  0
 53 96  1  0  0  0  0
 53 97  1  0  0  0  0
M  END
> <PUBCHEM_COMPOUND_CID>
73425493

> <PUBCHEM_COMPOUND_CANONICALIZED>
1

> <PUBCHEM_CACTVS_COMPLEXITY>
1160

> <PUBCHEM_CACTVS_HBOND_ACCEPTOR>
13

> <PUBCHEM_CACTVS_HBOND_DONOR>
6

> <PUBCHEM_CACTVS_ROTATABLE_BOND>
14

> <PUBCHEM_CACTVS_SUBSKEYS>
AAADcfB8PAAAAAAAAAAAAAAAAAAAASJAAAAwYMGAAAAAAEgBVAAAGgAACAAADRSgmAIyDoAABgCIAiDSCAACCAAgIAAIiAEGiIgNNjKGMRqCeCOlwBELuAfK6PyOoAADAAAIQABAAAYAABCAAAAAAAAAAA==

> <PUBCHEM_IUPAC_OPENEYE_NAME>
(3R,4R)-4-[[4-hydroxy-3-[2-hydroxy-2-(4-hydroxy-3-methoxy-phenyl)-1-(hydroxymethyl)ethyl]-5-methoxy-phenyl]methyl]-3-[[(2S,3R)-2-(4-hydroxy-3-methoxy-phenyl)-3-(hydroxymethyl)-7-methoxy-2,3-dihydrobenzofuran-5-yl]methyl]tetrahydrofuran-2-one

> <PUBCHEM_IUPAC_CAS_NAME>
(3R,4R)-4-[[3-[1,3-dihydroxy-1-(4-hydroxy-3-methoxyphenyl)propan-2-yl]-4-hydroxy-5-methoxyphenyl]methyl]-3-[[(2S,3R)-2-(4-hydroxy-3-methoxyphenyl)-3-(hydroxymethyl)-7-methoxy-2,3-dihydrobenzofuran-5-yl]methyl]-2-oxolanone

> <PUBCHEM_IUPAC_NAME_MARKUP>
(3<I>R</I>,4<I>R</I>)-4-[[3-[1,3-dihydroxy-1-(4-hydroxy-3-methoxyphenyl)propan-2-yl]-4-hydroxy-5-methoxyphenyl]methyl]-3-[[(2<I>S</I>,3<I>R</I>)-2-(4-hydroxy-3-methoxyphenyl)-3-(hydroxymethyl)-7-methoxy-2,3-dihydro-1-benzofuran-5-yl]methyl]oxolan-2-one

> <PUBCHEM_IUPAC_NAME>
(3R,4R)-4-[[3-[1,3-dihydroxy-1-(4-hydroxy-3-methoxyphenyl)propan-2-yl]-4-hydroxy-5-methoxyphenyl]methyl]-3-[[(2S,3R)-2-(4-hydroxy-3-methoxyphenyl)-3-(hydroxymethyl)-7-methoxy-2,3-dihydro-1-benzofuran-5-yl]methyl]oxolan-2-one

> <PUBCHEM_IUPAC_SYSTEMATIC_NAME>
(3R,4R)-3-[[(2S,3R)-3-(hydroxymethyl)-7-methoxy-2-(3-methoxy-4-oxidanyl-phenyl)-2,3-dihydro-1-benzofuran-5-yl]methyl]-4-[[3-methoxy-5-[1-(3-methoxy-4-oxidanyl-phenyl)-1,3-bis(oxidanyl)propan-2-yl]-4-oxidanyl-phenyl]methyl]oxolan-2-one

> <PUBCHEM_IUPAC_TRADITIONAL_NAME>
(3R,4R)-4-[4-hydroxy-3-[2-hydroxy-2-(4-hydroxy-3-methoxy-phenyl)-1-methylol-ethyl]-5-methoxy-benzyl]-3-[[(2S,3R)-2-(4-hydroxy-3-methoxy-phenyl)-7-methoxy-3-methylol-coumaran-5-yl]methyl]tetrahydrofuran-2-one

> <PUBCHEM_IUPAC_INCHI>
InChI=1S/C40H44O13/c1-48-32-15-22(5-7-30(32)43)36(45)28(17-41)26-11-20(13-34(50-3)37(26)46)9-24-19-52-40(47)25(24)10-21-12-27-29(18-42)38(53-39(27)35(14-21)51-4)23-6-8-31(44)33(16-23)49-2/h5-8,11-16,24-25,28-29,36,38,41-46H,9-10,17-19H2,1-4H3/t24-,25+,28?,29-,36?,38+/m0/s1

> <PUBCHEM_IUPAC_INCHIKEY>
YUHXLTKARLJXBV-FGEPHIOBSA-N

> <PUBCHEM_XLOGP3_AA>
3.7

> <PUBCHEM_EXACT_MASS>
732.278191

> <PUBCHEM_MOLECULAR_FORMULA>
C40H44O13

> <PUBCHEM_MOLECULAR_WEIGHT>
732.8

> <PUBCHEM_OPENEYE_CAN_SMILES>
COC1=CC(=CC(=C1O)C(CO)C(C2=CC(=C(C=C2)O)OC)O)CC3COC(=O)C3CC4=CC5=C(C(=C4)OC)OC(C5CO)C6=CC(=C(C=C6)O)OC

> <PUBCHEM_OPENEYE_ISO_SMILES>
COC1=CC(=CC(=C1O)C(CO)C(C2=CC(=C(C=C2)O)OC)O)C[C@H]3COC(=O)[C@@H]3CC4=CC5=C(C(=C4)OC)O[C@@H]([C@H]5CO)C6=CC(=C(C=C6)O)OC

> <PUBCHEM_CACTVS_TPSA>
194

> <PUBCHEM_MONOISOTOPIC_WEIGHT>
732.278191

> <PUBCHEM_TOTAL_CHARGE>
0

> <PUBCHEM_HEAVY_ATOM_COUNT>
53

> <PUBCHEM_ATOM_DEF_STEREO_COUNT>
4

> <PUBCHEM_ATOM_UDEF_STEREO_COUNT>
2

> <PUBCHEM_BOND_DEF_STEREO_COUNT>
0

> <PUBCHEM_BOND_UDEF_STEREO_COUNT>
0

> <PUBCHEM_ISOTOPIC_ATOM_COUNT>
0

> <PUBCHEM_COMPONENT_COUNT>
1

> <PUBCHEM_CACTVS_TAUTO_COUNT>
-1

> <PUBCHEM_COORDINATE_TYPE>
1
5
255

> <PUBCHEM_BONDANNOTATIONS>
14  17  6
15  16  5
19  28  6
21  24  8
21  27  8
22  24  8
22  26  8
23  30  5
25  31  8
25  33  8
26  29  8
27  29  8
30  38  8
30  39  8
31  32  8
32  35  8
33  36  8
34  40  3
35  36  8
38  42  8
39  43  8
41  46  8
41  47  8
42  44  8
43  44  8
46  49  8
47  50  8
49  51  8
50  51  8
37  8  3

$$$$
